 # "Ce32 O64"
  
          96  atoms
           2  atom types
 
      0.000000000000      10.934900000000  xlo xhi
      0.000000000000      10.934900000000  ylo yhi
      0.000000000000      10.934900000000  zlo zhi
 
Masses
 
            1   140.11600000            # Ce
            2   15.99900000             # O
 
Atoms # atomic
 
         1         1   4.0        0.000000000000       0.000000000000       0.000000000000
         2         1   4.0        0.000000000000       2.733725000000       2.733725000000
         3         1   4.0        2.733725000000       0.000000000000       2.733725000000
         4         1   4.0        2.733725000000       2.733725000000       0.000000000000
         5         2   -2.0        1.366862500000       1.366862500000       4.100587500000
         6         2   -2.0        1.366862500000       4.100587500000       4.100587500000
         7         2   -2.0        1.366862500000       4.100587500000       1.366862500000
         8         2   -2.0        1.366862500000       1.366862500000       1.366862500000
         9         2   -2.0        4.100587500000       1.366862500000       1.366862500000
         10         2   -2.0        4.100587500000       4.100587500000       1.366862500000
         11         2   -2.0        4.100587500000       4.100587500000       4.100587500000
         12         2   -2.0        4.100587500000       1.366862500000       4.100587500000
         13         1   4.0        0.000000000000       0.000000000000       5.467450000000
         14         1   4.0        0.000000000000       2.733725000000       8.201175000000
         15         1   4.0        2.733725000000       10.934900000000       8.201175000000
         16         1   4.0        2.733725000000       2.733725000000       5.467450000000
         17         2   -2.0        1.366862500000       1.366862500000       9.568037500000
         18         2   -2.0        1.366862500000       4.100587500000       9.568037500000
         19         2   -2.0        1.366862500000       4.100587500000       6.834312500000
         20         2   -2.0        1.366862500000       1.366862500000       6.834312500000
         21         2   -2.0        4.100587500000       1.366862500000       6.834312500000
         22         2   -2.0        4.100587500000       4.100587500000       6.834312500000
         23         2   -2.0        4.100587500000       4.100587500000       9.568037500000
         24         2   -2.0        4.100587500000       1.366862500000       9.568037500000
         25         1   4.0        0.000000000000       5.467450000000       0.000000000000
         26         1   4.0        0.000000000000       8.201175000000       2.733725000000
         27         1   4.0        2.733725000000       5.467450000000       2.733725000000
         28         1   4.0        2.733725000000       8.201175000000       0.000000000000
         29         2   -2.0        1.366862500000       6.834312500000       4.100587500000
         30         2   -2.0        1.366862500000       9.568037500000       4.100587500000
         31         2   -2.0        1.366862500000       9.568037500000       1.366862500000
         32         2   -2.0        1.366862500000       6.834312500000       1.366862500000
         33         2   -2.0        4.100587500000       6.834312500000       1.366862500000
         34         2   -2.0        4.100587500000       9.568037500000       1.366862500000
         35         2   -2.0        4.100587500000       9.568037500000       4.100587500000
         36         2   -2.0        4.100587500000       6.834312500000       4.100587500000
         37         1   4.0        0.000000000000       5.467450000000       5.467450000000
         38         1   4.0        0.000000000000       8.201175000000       8.201175000000
         39         1   4.0        2.733725000000       5.467450000000       8.201175000000
         40         1   4.0        2.733725000000       8.201175000000       5.467450000000
         41         2   -2.0        1.366862500000       6.834312500000       9.568037500000
         42         2   -2.0        1.366862500000       9.568037500000       9.568037500000
         43         2   -2.0        1.366862500000       9.568037500000       6.834312500000
         44         2   -2.0        1.366862500000       6.834312500000       6.834312500000
         45         2   -2.0        4.100587500000       6.834312500000       6.834312500000
         46         2   -2.0        4.100587500000       9.568037500000       6.834312500000
         47         2   -2.0        4.100587500000       9.568037500000       9.568037500000
         48         2   -2.0        4.100587500000       6.834312500000       9.568037500000
         49         1   4.0        5.467450000000       0.000000000000       0.000000000000
         50         1   4.0        5.467450000000       2.733725000000       2.733725000000
         51         1   4.0        8.201175000000       0.000000000000       2.733725000000
         52         1   4.0        8.201175000000       2.733725000000       0.000000000000
         53         2   -2.0        6.834312500000       1.366862500000       4.100587500000
         54         2   -2.0        6.834312500000       4.100587500000       4.100587500000
         55         2   -2.0        6.834312500000       4.100587500000       1.366862500000
         56         2   -2.0        6.834312500000       1.366862500000       1.366862500000
         57         2   -2.0        9.568037500000       1.366862500000       1.366862500000
         58         2   -2.0        9.568037500000       4.100587500000       1.366862500000
         59         2   -2.0        9.568037500000       4.100587500000       4.100587500000
         60         2   -2.0        9.568037500000       1.366862500000       4.100587500000
         61         1   4.0        5.467450000000       0.000000000000       5.467450000000
         62         1   4.0        5.467450000000       2.733725000000       8.201175000000
         63         1   4.0        8.201175000000       10.934900000000       8.201175000000
         64         1   4.0        8.201175000000       2.733725000000       5.467450000000
         65         2   -2.0        6.834312500000       1.366862500000       9.568037500000
         66         2   -2.0        6.834312500000       4.100587500000       9.568037500000
         67         2   -2.0        6.834312500000       4.100587500000       6.834312500000
         68         2   -2.0        6.834312500000       1.366862500000       6.834312500000
         69         2   -2.0        9.568037500000       1.366862500000       6.834312500000
         70         2   -2.0        9.568037500000       4.100587500000       6.834312500000
         71         2   -2.0        9.568037500000       4.100587500000       9.568037500000
         72         2   -2.0        9.568037500000       1.366862500000       9.568037500000
         73         1   4.0        5.467450000000       5.467450000000       0.000000000000
         74         1   4.0        5.467450000000       8.201175000000       2.733725000000
         75         1   4.0        8.201175000000       5.467450000000       2.733725000000
         76         1   4.0        8.201175000000       8.201175000000       0.000000000000
         77         2   -2.0        6.834312500000       6.834312500000       4.100587500000
         78         2   -2.0        6.834312500000       9.568037500000       4.100587500000
         79         2   -2.0        6.834312500000       9.568037500000       1.366862500000
         80         2   -2.0        6.834312500000       6.834312500000       1.366862500000
         81         2   -2.0        9.568037500000       6.834312500000       1.366862500000
         82         2   -2.0        9.568037500000       9.568037500000       1.366862500000
         83         2   -2.0        9.568037500000       9.568037500000       4.100587500000
         84         2   -2.0        9.568037500000       6.834312500000       4.100587500000
         85         1   4.0        5.467450000000       5.467450000000       5.467450000000
         86         1   4.0        5.467450000000       8.201175000000       8.201175000000
         87         1   4.0        8.201175000000       5.467450000000       8.201175000000
         88         1   4.0        8.201175000000       8.201175000000       5.467450000000
         89         2   -2.0        6.834312500000       6.834312500000       9.568037500000
         90         2   -2.0        6.834312500000       9.568037500000       9.568037500000
         91         2   -2.0        6.834312500000       9.568037500000       6.834312500000
         92         2   -2.0        6.834312500000       6.834312500000       6.834312500000
         93         2   -2.0        9.568037500000       6.834312500000       6.834312500000
         94         2   -2.0        9.568037500000       9.568037500000       6.834312500000
         95         2   -2.0        9.568037500000       9.568037500000       9.568037500000
         96         2   -2.0        9.568037500000       6.834312500000       9.568037500000
