LAMMPS (2 Aug 2023 - Update 3)
OMP_NUM_THREADS environment is not set. Defaulting to 1 thread. (src/comm.cpp:98)
  using 1 OpenMP thread(s) per MPI task
Loaded 1 plugins from C:\Users\user\AppData\Local\LAMMPS 64-bit 2Aug2023\plugins
clear
OMP_NUM_THREADS environment is not set. Defaulting to 1 thread. (src/comm.cpp:98)
  using 1 OpenMP thread(s) per MPI task
Loaded 1 plugins from C:\Users\user\AppData\Local\LAMMPS 64-bit 2Aug2023\plugins
units real
dimension 3
boundary p p p
atom_style charge
atom_modify map array
variable nx equal 2
variable ny equal 2
variable nz equal 2
variable total_cells equal ${nx}*${ny}*${nz}
variable total_cells equal 2*${ny}*${nz}
variable total_cells equal 2*2*${nz}
variable total_cells equal 2*2*2
region box block 0 ${nx} 0 ${ny} 0 ${nz}
region box block 0 2 0 ${ny} 0 ${nz}
region box block 0 2 0 2 0 ${nz}
region box block 0 2 0 2 0 2
read_data C:/Users/user/Documents/School/FFparamOpt/reax_ff_sim/ceo2_reaxff/geometry_file/fluorite_scaled/ceO2_fluorite_0.950.lmp
Reading data file ...
  orthogonal box = (0 0 0) to (5.1940775 5.1940775 5.1940775)
  1 by 1 by 1 MPI processor grid
  reading atoms ...
  12 atoms
  read_data CPU = 0.006 seconds
pair_style reaxff NULL checkqeq yes
pair_coeff * * C:/Users/user/Documents/School/FFparamOpt/reax_ff_sim/ffield.reax O Ce
fix qeq all qeq/reaxff 1 0.0 10.0 1.0e-6 reaxff
neighbor 2.0 bin
neigh_modify every 1 delay 0 check yes
comm_modify vel yes
compute eng all pe/atom
compute eatoms all reduce sum c_eng
fix efield all efield 5.0 0.0 0.0 region box
reset_timestep 0
thermo 10
thermo_style custom step pe lx ly lz press pxx pyy pzz c_eatoms
min_style cg
minimize 1e-25 1e-25 5000 10000

CITE-CITE-CITE-CITE-CITE-CITE-CITE-CITE-CITE-CITE-CITE-CITE-CITE

Your simulation uses code contributions which should be cited:

- pair reaxff command: doi:10.1016/j.parco.2011.08.005

@Article{Aktulga12,
 author = {H. M. Aktulga and J. C. Fogarty and S. A. Pandit and A. Y. Grama},
 title = {Parallel Reactive Molecular Dynamics: {N}umerical Methods and Algorithmic Techniques},
 journal = {Parallel Computing},
 year =    2012,
 volume =  38,
 number =  {4--5},
 pages =   {245--259}
}

- fix qeq/reaxff command: doi:10.1016/j.parco.2011.08.005

@Article{Aktulga12,
 author = {H. M. Aktulga and J. C. Fogarty and S. A. Pandit and A. Y. Grama},
 title = {Parallel Reactive Molecular Dynamics: {N}umerical Methods and Algorithmic Techniques},
 journal = {Parallel Computing},
 year =    2012,
 volume =  38,
 pages =   {245--259}
}

CITE-CITE-CITE-CITE-CITE-CITE-CITE-CITE-CITE-CITE-CITE-CITE-CITE

ERROR: Must not have electric field component in direction of periodic boundary when using charge equilibration with ReaxFF. (src/REAXFF/fix_qeq_reaxff.cpp:419)
Last command: minimize 1e-25 1e-25 5000 10000
Total wall time: 0:03:11
ts, perpetual/occasional/extra = 2 0 0
  (1) pair reaxff, perpetual
      attributes: half, newton off, ghost
      pair build: half/bin/newtoff/ghost
      stencil: full/ghost/bin/3d
      bin: standard
  (2) fix qeq/reaxff, perpetual, copy from (1)
      attributes: half, newton off
      pair build: copy
      stencil: none
      bin: none
Per MPI rank memory allocation (min/avg/max) = 14.34 | 14.34 | 14.34 Mbytes
   Step         PotEng           Lx             Ly             Lz           Press           Pxx            Pyy            Pzz          c_eatoms   
         0  -334.46101      3.8965969      5.1940775      5.1940775      3265034        2318751.8      3738175        3738175       -334.46101    
        10  -719.63518      3.8965969      5.1940775      5.1940775      2197201.7      726688.01      2932458.6      2932458.6     -719.63518    
        20  -731.7666       3.8965969      5.1940775      5.1940775      2098857        688345.09      2804112.9      2804112.9     -731.7666     
        30  -745.86509      3.8965969      5.1940775      5.1940775      1945128.6      653085.46      2591150.2      2591150.2     -745.86509    
        40  -753.21317      3.8965969      5.1940775      5.1940775      1859387.8      673390.97      2452386.2      2452386.2     -753.21317    
        50  -1296.643       5.3590139      5.1940775      5.1940775      698781.63      328535.19      883904.86      883904.86     -1296.643     
        60  -1575.2321      6.3843875      5.1940775      5.1940775      487414.05      371507.12      545367.51      545367.51     -1575.2321    
        68  -1575.2558      6.3843875      5.1940775      5.1940775      487394.73      371493.31      545345.44      545345.44     -1575.2558    
Loop time of 2.0975 on 1 procs for 68 steps with 12 atoms

100.6% CPU use with 1 MPI tasks x 1 OpenMP threads

Minimization stats:
  Stopping criterion = linesearch alpha is zero
  Energy initial, next-to-last, final = 
     -334.461005364418   -1575.2557684071  -1575.25576591853
  Force two-norm initial, final = 848.45394 204.5592
  Force max component initial, final = 337.24256 124.71765
  Final line search alpha, max atom move = 1.866862e-13 2.3283063e-11
  Iterations, force evaluations = 68 898

MPI task timing breakdown:
Section |  min time  |  avg time  |  max time  |%varavg| %total
---------------------------------------------------------------
Pair    | 1.9957     | 1.9957     | 1.9957     |   0.0 | 95.15
Neigh   | 0.000892   | 0.000892   | 0.000892   |   0.0 |  0.04
Comm    | 0.005302   | 0.005302   | 0.005302   |   0.0 |  0.25
Output  | 0.000273   | 0.000273   | 0.000273   |   0.0 |  0.01
Modify  | 0.093049   | 0.093049   | 0.093049   |   0.0 |  4.44
Other   |            | 0.002244   |            |       |  0.11

Nlocal:             12 ave          12 max          12 min
Histogram: 1 0 0 0 0 0 0 0 0 0
Nghost:            397 ave         397 max         397 min
Histogram: 1 0 0 0 0 0 0 0 0 0
Neighs:           2198 ave        2198 max        2198 min
Histogram: 1 0 0 0 0 0 0 0 0 0

Total # of neighbors = 2198
Ave neighs/atom = 183.16667
Neighbor list builds = 2
Dangerous builds = 0
clear
OMP_NUM_THREADS environment is not set. Defaulting to 1 thread. (src/comm.cpp:98)
  using 1 OpenMP thread(s) per MPI task
Loaded 1 plugins from C:\Users\user\AppData\Local\LAMMPS 64-bit 2Aug2023\plugins
units real
dimension 3
boundary s p p
atom_style charge
atom_modify map array
variable nx equal 2
variable ny equal 2
variable nz equal 2
variable total_cells equal ${nx}*${ny}*${nz}
variable total_cells equal 2*${ny}*${nz}
variable total_cells equal 2*2*${nz}
variable total_cells equal 2*2*2
region box block 0 ${nx} 0 ${ny} 0 ${nz}
region box block 0 2 0 ${ny} 0 ${nz}
region box block 0 2 0 2 0 ${nz}
region box block 0 2 0 2 0 2
read_data C:/Users/user/Documents/School/FFparamOpt/reax_ff_sim/ceo2_reaxff/geometry_file/fluorite_scaled/ceO2_fluorite_0.960.lmp
Reading data file ...
  orthogonal box = (0 0 0) to (5.248752 5.248752 5.248752)
  1 by 1 by 1 MPI processor grid
  reading atoms ...
  12 atoms
  read_data CPU = 0.002 seconds
pair_style reaxff NULL checkqeq yes
pair_coeff * * C:/Users/user/Documents/School/FFparamOpt/reax_ff_sim/ffield.reax O Ce
fix qeq all qeq/reaxff 1 0.0 10.0 1.0e-6 reaxff
neighbor 2.0 bin
neigh_modify every 1 delay 0 check yes
comm_modify vel yes
compute eng all pe/atom
compute eatoms all reduce sum c_eng
fix efield all efield 5.0 0.0 0.0 region box
reset_timestep 0
thermo 10
thermo_style custom step pe lx ly lz press pxx pyy pzz c_eatoms
min_style cg
minimize 1e-25 1e-25 5000 10000
Neighbor list info ...
  update: every = 1 steps, delay = 0 steps, check = yes
  max neighbors/atom: 2000, page size: 100000
  master list distance cutoff = 12
  ghost atom cutoff = 12
  binsize = 6, bins = 1 1 1
  2 neighbor lists, perpetual/occasional/extra = 2 0 0
  (1) pair reaxff, perpetual
      attributes: half, newton off, ghost
      pair build: half/bin/newtoff/ghost
      stencil: full/ghost/bin/3d
      bin: standard
  (2) fix qeq/reaxff, perpetual, copy from (1)
      attributes: half, newton off
      pair build: copy
      stencil: none
      bin: none
Per MPI rank memory allocation (min/avg/max) = 14.34 | 14.34 | 14.34 Mbytes
   Step         PotEng           Lx             Ly             Lz           Press           Pxx            Pyy            Pzz          c_eatoms   
         0  -484.55965      3.9376138      5.248752       5.248752       2818164.1      1986076.3      3234208        3234208       -484.55965    
        10  -792.94809      3.9376138      5.248752       5.248752       2016369.2      703659.2       2672724.3      2672724.3     -792.94809    
        20  -812.87923      3.9376138      5.248752       5.248752       1889822.6      629848.03      2519809.8      2519809.8     -812.87923    
        30  -829.71236      3.9376138      5.248752       5.248752       1649133.6      587307.18      2180046.8      2180046.8     -829.71236    
        40  -1218.5712      5.3138671      5.248752       5.248752       952581.12      474605.7       1191568.8      1191568.8     -1218.5712    
        50  -1609.1264      6.351606       5.248752       5.248752       423525.67      336981.57      466797.72      466797.72     -1609.1264    
        60  -1615.9545      6.351606       5.248752       5.248752       417246.75      332500.46      459619.9       459619.9      -1615.9545    
        70  -1616.0005      6.351606       5.248752       5.248752       417203.78      332469.57      459570.89      459570.89     -1616.0005    
        80  -1616.0009      6.351606       5.248752       5.248752       417203.39      332469.3       459570.44      459570.44     -1616.0009    
        90  -1616.0009      6.351606       5.248752       5.248752       417203.39      332469.3       459570.43      459570.43     -1616.0009    
        91  -1616.0009      6.351606       5.248752       5.248752       417203.4       332469.3       459570.45      459570.45     -1616.0009    
Loop time of 2.87141 on 1 procs for 91 steps with 12 atoms

100.1% CPU use with 1 MPI tasks x 1 OpenMP threads

Minimization stats:
  Stopping criterion = linesearch alpha is zero
  Energy initial, next-to-last, final = 
     -484.559645603618  -1616.00094515421  -1616.00094498685
  Force two-norm initial, final = 747.35544 195.27932
  Force max component initial, final = 297.31816 111.77647
  Final line search alpha, max atom move = 2.0830022e-13 2.3283064e-11
  Iterations, force evaluations = 91 1382

MPI task timing breakdown:
Section |  min time  |  avg time  |  max time  |%varavg| %total
---------------------------------------------------------------
Pair    | 2.7242     | 2.7242     | 2.7242     |   0.0 | 94.87
Neigh   | 0.0009     | 0.0009     | 0.0009     |   0.0 |  0.03
Comm    | 0.006277   | 0.006277   | 0.006277   |   0.0 |  0.22
Output  | 0.000188   | 0.000188   | 0.000188   |   0.0 |  0.01
Modify  | 0.13732    | 0.13732    | 0.13732    |   0.0 |  4.78
Other   |            | 0.002481   |            |       |  0.09

Nlocal:             12 ave          12 max          12 min
Histogram: 1 0 0 0 0 0 0 0 0 0
Nghost:            397 ave         397 max         397 min
Histogram: 1 0 0 0 0 0 0 0 0 0
Neighs:           2182 ave        2182 max        2182 min
Histogram: 1 0 0 0 0 0 0 0 0 0

Total # of neighbors = 2182
Ave neighs/atom = 181.83333
Neighbor list builds = 2
Dangerous builds = 0
clear
OMP_NUM_THREADS environment is not set. Defaulting to 1 thread. (src/comm.cpp:98)
  using 1 OpenMP thread(s) per MPI task
Loaded 1 plugins from C:\Users\user\AppData\Local\LAMMPS 64-bit 2Aug2023\plugins
units real
dimension 3
boundary s p p
atom_style charge
atom_modify map array
variable nx equal 2
variable ny equal 2
variable nz equal 2
variable total_cells equal ${nx}*${ny}*${nz}
variable total_cells equal 2*${ny}*${nz}
variable total_cells equal 2*2*${nz}
variable total_cells equal 2*2*2
region box block 0 ${nx} 0 ${ny} 0 ${nz}
region box block 0 2 0 ${ny} 0 ${nz}
region box block 0 2 0 2 0 ${nz}
region box block 0 2 0 2 0 2
read_data C:/Users/user/Documents/School/FFparamOpt/reax_ff_sim/ceo2_reaxff/geometry_file/fluorite_scaled/ceO2_fluorite_0.970.lmp
Reading data file ...
  orthogonal box = (0 0 0) to (5.3034265 5.3034265 5.3034265)
  1 by 1 by 1 MPI processor grid
  reading atoms ...
  12 atoms
  read_data CPU = 0.002 seconds
pair_style reaxff NULL checkqeq yes
pair_coeff * * C:/Users/user/Documents/School/FFparamOpt/reax_ff_sim/ffield.reax O Ce
fix qeq all qeq/reaxff 1 0.0 10.0 1.0e-6 reaxff
neighbor 2.0 bin
neigh_modify every 1 delay 0 check yes
comm_modify vel yes
compute eng all pe/atom
compute eatoms all reduce sum c_eng
fix efield all efield 5.0 0.0 0.0 region box
reset_timestep 0
thermo 10
thermo_style custom step pe lx ly lz press pxx pyy pzz c_eatoms
min_style cg
minimize 1e-25 1e-25 5000 10000
Neighbor list info ...
  update: every = 1 steps, delay = 0 steps, check = yes
  max neighbors/atom: 2000, page size: 100000
  master list distance cutoff = 12
  ghost atom cutoff = 12
  binsize = 6, bins = 1 1 1
  2 neighbor lists, perpetual/occasional/extra = 2 0 0
  (1) pair reaxff, perpetual
      attributes: half, newton off, ghost
      pair build: half/bin/newtoff/ghost
      stencil: full/ghost/bin/3d
      bin: standard
  (2) fix qeq/reaxff, perpetual, copy from (1)
      attributes: half, newton off
      pair build: copy
      stencil: none
      bin: none
Per MPI rank memory allocation (min/avg/max) = 14.34 | 14.34 | 14.34 Mbytes
   Step         PotEng           Lx             Ly             Lz           Press           Pxx            Pyy            Pzz          c_eatoms   
         0  -617.03069      3.9786306      5.3034265      5.3034265      2434704.2      1703151.8      2800480.4      2800480.4     -617.03069    
        10  -887.38123      3.9786306      5.3034265      5.3034265      1690088.9      571500.02      2249383.4      2249383.4     -887.38123    
        20  -892.11129      3.9786306      5.3034265      5.3034265      1602540.1      540917.38      2133351.4      2133351.4     -892.11129    
        30  -896.43438      3.9786306      5.3034265      5.3034265      1460424.9      519571.79      1930851.4      1930851.4     -896.43438    
        32  -896.43359      3.9786306      5.3034265      5.3034265      1460423.9      519571.66      1930850        1930850       -896.43359    
Loop time of 1.31385 on 1 procs for 32 steps with 12 atoms

99.9% CPU use with 1 MPI tasks x 1 OpenMP threads

Minimization stats:
  Stopping criterion = linesearch alpha is zero
  Energy initial, next-to-last, final = 
     -617.030687791425  -896.434906036814  -896.433589421178
  Force two-norm initial, final = 660.60885 383.56553
  Force max component initial, final = 262.74116 271.61592
  Final line search alpha, max atom move = 4.2860444e-14 1.1641579e-11
  Iterations, force evaluations = 32 589

MPI task timing breakdown:
Section |  min time  |  avg time  |  max time  |%varavg| %total
---------------------------------------------------------------
Pair    | 1.2529     | 1.2529     | 1.2529     |   0.0 | 95.36
Neigh   | 0          | 0          | 0          |   0.0 |  0.00
Comm    | 0.00282    | 0.00282    | 0.00282    |   0.0 |  0.21
Output  | 7e-05      | 7e-05      | 7e-05      |   0.0 |  0.01
Modify  | 0.056805   | 0.056805   | 0.056805   |   0.0 |  4.32
Other   |            | 0.00127    |            |       |  0.10

Nlocal:             12 ave          12 max          12 min
Histogram: 1 0 0 0 0 0 0 0 0 0
Nghost:            397 ave         397 max         397 min
Histogram: 1 0 0 0 0 0 0 0 0 0
Neighs:           2166 ave        2166 max        2166 min
Histogram: 1 0 0 0 0 0 0 0 0 0

Total # of neighbors = 2166
Ave neighs/atom = 180.5
Neighbor list builds = 0
Dangerous builds = 0
clear
OMP_NUM_THREADS environment is not set. Defaulting to 1 thread. (src/comm.cpp:98)
  using 1 OpenMP thread(s) per MPI task
Loaded 1 plugins from C:\Users\user\AppData\Local\LAMMPS 64-bit 2Aug2023\plugins
units real
dimension 3
boundary s p p
atom_style charge
atom_modify map array
variable nx equal 2
variable ny equal 2
variable nz equal 2
variable total_cells equal ${nx}*${ny}*${nz}
variable total_cells equal 2*${ny}*${nz}
variable total_cells equal 2*2*${nz}
variable total_cells equal 2*2*2
region box block 0 ${nx} 0 ${ny} 0 ${nz}
region box block 0 2 0 ${ny} 0 ${nz}
region box block 0 2 0 2 0 ${nz}
region box block 0 2 0 2 0 2
read_data C:/Users/user/Documents/School/FFparamOpt/reax_ff_sim/ceo2_reaxff/geometry_file/fluorite_scaled/ceO2_fluorite_0.980.lmp
Reading data file ...
  orthogonal box = (0 0 0) to (5.358101 5.358101 5.358101)
  1 by 1 by 1 MPI processor grid
  reading atoms ...
  12 atoms
  read_data CPU = 0.003 seconds
pair_style reaxff NULL checkqeq yes
pair_coeff * * C:/Users/user/Documents/School/FFparamOpt/reax_ff_sim/ffield.reax O Ce
fix qeq all qeq/reaxff 1 0.0 10.0 1.0e-6 reaxff
neighbor 2.0 bin
neigh_modify every 1 delay 0 check yes
comm_modify vel yes
compute eng all pe/atom
compute eatoms all reduce sum c_eng
fix efield all efield 5.0 0.0 0.0 region box
reset_timestep 0
thermo 10
thermo_style custom step pe lx ly lz press pxx pyy pzz c_eatoms
min_style cg
minimize 1e-25 1e-25 5000 10000
Neighbor list info ...
  update: every = 1 steps, delay = 0 steps, check = yes
  max neighbors/atom: 2000, page size: 100000
  master list distance cutoff = 12
  ghost atom cutoff = 12
  binsize = 6, bins = 1 1 1
  2 neighbor lists, perpetual/occasional/extra = 2 0 0
  (1) pair reaxff, perpetual
      attributes: half, newton off, ghost
      pair build: half/bin/newtoff/ghost
      stencil: full/ghost/bin/3d
      bin: standard
  (2) fix qeq/reaxff, perpetual, copy from (1)
      attributes: half, newton off
      pair build: copy
      stencil: none
      bin: none
Per MPI rank memory allocation (min/avg/max) = 12.65 | 12.65 | 12.65 Mbytes
   Step         PotEng           Lx             Ly             Lz           Press           Pxx            Pyy            Pzz          c_eatoms   
         0  -734.06995      4.0196474      5.358101       5.358101       2106327.5      1463353.7      2427814.4      2427814.4     -734.06995    
        10  -947.4022       4.0196474      5.358101       5.358101       1568136.2      563503.91      2070452.3      2070452.3     -947.4022     
        20  -954.56508      4.0196474      5.358101       5.358101       1506685.7      521483.57      1999286.8      1999286.8     -954.56508    
        30  -955.07658      4.0196474      5.358101       5.358101       1497947.3      517361.7       1988240.1      1988240.1     -955.07658    
        39  -958.04453      4.0196474      5.358101       5.358101       1376605.2      475770.03      1827022.8      1827022.8     -958.04453    
Loop time of 1.5217 on 1 procs for 39 steps with 12 atoms

99.6% CPU use with 1 MPI tasks x 1 OpenMP threads

Minimization stats:
  Stopping criterion = linesearch alpha is zero
  Energy initial, next-to-last, final = 
     -734.069951314348  -958.044943209185  -958.044525038018
  Force two-norm initial, final = 586.55204 303.1316
  Force max component initial, final = 232.90697 219.41298
  Final line search alpha, max atom move = 1.0611537e-13 2.328309e-11
  Iterations, force evaluations = 39 750

MPI task timing breakdown:
Section |  min time  |  avg time  |  max time  |%varavg| %total
---------------------------------------------------------------
Pair    | 1.4456     | 1.4456     | 1.4456     |   0.0 | 95.00
Neigh   | 0          | 0          | 0          |   0.0 |  0.00
Comm    | 0.00341    | 0.00341    | 0.00341    |   0.0 |  0.22
Output  | 6.9e-05    | 6.9e-05    | 6.9e-05    |   0.0 |  0.00
Modify  | 0.070969   | 0.070969   | 0.070969   |   0.0 |  4.66
Other   |            | 0.00163    |            |       |  0.11

Nlocal:             12 ave          12 max          12 min
Histogram: 1 0 0 0 0 0 0 0 0 0
Nghost:            309 ave         309 max         309 min
Histogram: 1 0 0 0 0 0 0 0 0 0
Neighs:           2166 ave        2166 max        2166 min
Histogram: 1 0 0 0 0 0 0 0 0 0

Total # of neighbors = 2166
Ave neighs/atom = 180.5
Neighbor list builds = 0
Dangerous builds = 0
clear
OMP_NUM_THREADS environment is not set. Defaulting to 1 thread. (src/comm.cpp:98)
  using 1 OpenMP thread(s) per MPI task
Loaded 1 plugins from C:\Users\user\AppData\Local\LAMMPS 64-bit 2Aug2023\plugins
units real
dimension 3
boundary s p p
atom_style charge
atom_modify map array
variable nx equal 2
variable ny equal 2
variable nz equal 2
variable total_cells equal ${nx}*${ny}*${nz}
variable total_cells equal 2*${ny}*${nz}
variable total_cells equal 2*2*${nz}
variable total_cells equal 2*2*2
region box block 0 ${nx} 0 ${ny} 0 ${nz}
region box block 0 2 0 ${ny} 0 ${nz}
region box block 0 2 0 2 0 ${nz}
region box block 0 2 0 2 0 2
read_data C:/Users/user/Documents/School/FFparamOpt/reax_ff_sim/ceo2_reaxff/geometry_file/fluorite_scaled/ceO2_fluorite_0.990.lmp
Reading data file ...
  orthogonal box = (0 0 0) to (5.4127755 5.4127755 5.4127755)
  1 by 1 by 1 MPI processor grid
  reading atoms ...
  12 atoms
  read_data CPU = 0.002 seconds
pair_style reaxff NULL checkqeq yes
pair_coeff * * C:/Users/user/Documents/School/FFparamOpt/reax_ff_sim/ffield.reax O Ce
fix qeq all qeq/reaxff 1 0.0 10.0 1.0e-6 reaxff
neighbor 2.0 bin
neigh_modify every 1 delay 0 check yes
comm_modify vel yes
compute eng all pe/atom
compute eatoms all reduce sum c_eng
fix efield all efield 5.0 0.0 0.0 region box
reset_timestep 0
thermo 10
thermo_style custom step pe lx ly lz press pxx pyy pzz c_eatoms
min_style cg
minimize 1e-25 1e-25 5000 10000
Neighbor list info ...
  update: every = 1 steps, delay = 0 steps, check = yes
  max neighbors/atom: 2000, page size: 100000
  master list distance cutoff = 12
  ghost atom cutoff = 12
  binsize = 6, bins = 1 1 1
  2 neighbor lists, perpetual/occasional/extra = 2 0 0
  (1) pair reaxff, perpetual
      attributes: half, newton off, ghost
      pair build: half/bin/newtoff/ghost
      stencil: full/ghost/bin/3d
      bin: standard
  (2) fix qeq/reaxff, perpetual, copy from (1)
      attributes: half, newton off
      pair build: copy
      stencil: none
      bin: none
Per MPI rank memory allocation (min/avg/max) = 12.65 | 12.65 | 12.65 Mbytes
   Step         PotEng           Lx             Ly             Lz           Press           Pxx            Pyy            Pzz          c_eatoms   
         0  -837.6196       4.0606642      5.4127755      5.4127755      1825045        1260164.2      2107485.4      2107485.4     -837.6196     
        10  -1015.7305      4.0606642      5.4127755      5.4127755      1357141.6      481793.22      1794815.8      1794815.8     -1015.7305    
        20  -1016.956       4.0606642      5.4127755      5.4127755      1332103.1      466365.03      1764972.2      1764972.2     -1016.956     
        30  -1017.5427      4.0606642      5.4127755      5.4127755      1304101.3      452460.81      1729921.5      1729921.5     -1017.5427    
Loop time of 1.11945 on 1 procs for 30 steps with 12 atoms

99.1% CPU use with 1 MPI tasks x 1 OpenMP threads

Minimization stats:
  Stopping criterion = linesearch alpha is zero
  Energy initial, next-to-last, final = 
      -837.61959584096  -1017.54368761572   -1017.5427479595
  Force two-norm initial, final = 523.2297 235.35572
  Force max component initial, final = 207.10903 159.78623
  Final line search alpha, max atom move = 1.4571464e-13 2.3283193e-11
  Iterations, force evaluations = 30 581

MPI task timing breakdown:
Section |  min time  |  avg time  |  max time  |%varavg| %total
---------------------------------------------------------------
Pair    | 1.0638     | 1.0638     | 1.0638     |   0.0 | 95.03
Neigh   | 0          | 0          | 0          |   0.0 |  0.00
Comm    | 0.002157   | 0.002157   | 0.002157   |   0.0 |  0.19
Output  | 4.4e-05    | 4.4e-05    | 4.4e-05    |   0.0 |  0.00
Modify  | 0.052458   | 0.052458   | 0.052458   |   0.0 |  4.69
Other   |            | 0.000974   |            |       |  0.09

Nlocal:             12 ave          12 max          12 min
Histogram: 1 0 0 0 0 0 0 0 0 0
Nghost:            309 ave         309 max         309 min
Histogram: 1 0 0 0 0 0 0 0 0 0
Neighs:           2070 ave        2070 max        2070 min
Histogram: 1 0 0 0 0 0 0 0 0 0

Total # of neighbors = 2070
Ave neighs/atom = 172.5
Neighbor list builds = 0
Dangerous builds = 0
clear
OMP_NUM_THREADS environment is not set. Defaulting to 1 thread. (src/comm.cpp:98)
  using 1 OpenMP thread(s) per MPI task
Loaded 1 plugins from C:\Users\user\AppData\Local\LAMMPS 64-bit 2Aug2023\plugins
units real
dimension 3
boundary s p p
atom_style charge
atom_modify map array
variable nx equal 2
variable ny equal 2
variable nz equal 2
variable total_cells equal ${nx}*${ny}*${nz}
variable total_cells equal 2*${ny}*${nz}
variable total_cells equal 2*2*${nz}
variable total_cells equal 2*2*2
region box block 0 ${nx} 0 ${ny} 0 ${nz}
region box block 0 2 0 ${ny} 0 ${nz}
region box block 0 2 0 2 0 ${nz}
region box block 0 2 0 2 0 2
read_data C:/Users/user/Documents/School/FFparamOpt/reax_ff_sim/ceo2_reaxff/geometry_file/fluorite_scaled/ceO2_fluorite_1.000.lmp
Reading data file ...
  orthogonal box = (0 0 0) to (5.46745 5.46745 5.46745)
  1 by 1 by 1 MPI processor grid
  reading atoms ...
  12 atoms
  read_data CPU = 0.002 seconds
pair_style reaxff NULL checkqeq yes
pair_coeff * * C:/Users/user/Documents/School/FFparamOpt/reax_ff_sim/ffield.reax O Ce
fix qeq all qeq/reaxff 1 0.0 10.0 1.0e-6 reaxff
neighbor 2.0 bin
neigh_modify every 1 delay 0 check yes
comm_modify vel yes
compute eng all pe/atom
compute eatoms all reduce sum c_eng
fix efield all efield 5.0 0.0 0.0 region box
reset_timestep 0
thermo 10
thermo_style custom step pe lx ly lz press pxx pyy pzz c_eatoms
min_style cg
minimize 1e-25 1e-25 5000 10000
Neighbor list info ...
  update: every = 1 steps, delay = 0 steps, check = yes
  max neighbors/atom: 2000, page size: 100000
  master list distance cutoff = 12
  ghost atom cutoff = 12
  binsize = 6, bins = 1 1 1
  2 neighbor lists, perpetual/occasional/extra = 2 0 0
  (1) pair reaxff, perpetual
      attributes: half, newton off, ghost
      pair build: half/bin/newtoff/ghost
      stencil: full/ghost/bin/3d
      bin: standard
  (2) fix qeq/reaxff, perpetual, copy from (1)
      attributes: half, newton off
      pair build: copy
      stencil: none
      bin: none
Per MPI rank memory allocation (min/avg/max) = 12.65 | 12.65 | 12.65 Mbytes
   Step         PotEng           Lx             Ly             Lz           Press           Pxx            Pyy            Pzz          c_eatoms   
         0  -929.3548       4.101681       5.46745        5.46745        1582992.6      1086949.6      1831014.1      1831014.1     -929.3548     
        10  -1071.7173      4.101681       5.46745        5.46745        1211731.4      447754.96      1593719.7      1593719.7     -1071.7173    
        15  -1072.6885      4.101681       5.46745        5.46745        1181528.4      424063.35      1560260.9      1560260.9     -1072.6885    
Loop time of 0.503657 on 1 procs for 15 steps with 12 atoms

99.3% CPU use with 1 MPI tasks x 1 OpenMP threads

Minimization stats:
  Stopping criterion = linesearch alpha is zero
  Energy initial, next-to-last, final = 
     -929.354799837685  -1072.68985915749  -1072.68848265038
  Force two-norm initial, final = 468.78945 214.61771
  Force max component initial, final = 184.63989 139.32434
  Final line search alpha, max atom move = 1.6711534e-13 2.3283236e-11
  Iterations, force evaluations = 15 257

MPI task timing breakdown:
Section |  min time  |  avg time  |  max time  |%varavg| %total
---------------------------------------------------------------
Pair    | 0.47934    | 0.47934    | 0.47934    |   0.0 | 95.17
Neigh   | 0          | 0          | 0          |   0.0 |  0.00
Comm    | 0.000917   | 0.000917   | 0.000917   |   0.0 |  0.18
Output  | 2.3e-05    | 2.3e-05    | 2.3e-05    |   0.0 |  0.00
Modify  | 0.022995   | 0.022995   | 0.022995   |   0.0 |  4.57
Other   |            | 0.000383   |            |       |  0.08

Nlocal:             12 ave          12 max          12 min
Histogram: 1 0 0 0 0 0 0 0 0 0
Nghost:            309 ave         309 max         309 min
Histogram: 1 0 0 0 0 0 0 0 0 0
Neighs:           2070 ave        2070 max        2070 min
Histogram: 1 0 0 0 0 0 0 0 0 0

Total # of neighbors = 2070
Ave neighs/atom = 172.5
Neighbor list builds = 0
Dangerous builds = 0
clear
OMP_NUM_THREADS environment is not set. Defaulting to 1 thread. (src/comm.cpp:98)
  using 1 OpenMP thread(s) per MPI task
Loaded 1 plugins from C:\Users\user\AppData\Local\LAMMPS 64-bit 2Aug2023\plugins
units real
dimension 3
boundary s p p
atom_style charge
atom_modify map array
variable nx equal 2
variable ny equal 2
variable nz equal 2
variable total_cells equal ${nx}*${ny}*${nz}
variable total_cells equal 2*${ny}*${nz}
variable total_cells equal 2*2*${nz}
variable total_cells equal 2*2*2
region box block 0 ${nx} 0 ${ny} 0 ${nz}
region box block 0 2 0 ${ny} 0 ${nz}
region box block 0 2 0 2 0 ${nz}
region box block 0 2 0 2 0 2
read_data C:/Users/user/Documents/School/FFparamOpt/reax_ff_sim/ceo2_reaxff/geometry_file/fluorite_scaled/ceO2_fluorite_1.010.lmp
Reading data file ...
  orthogonal box = (0 0 0) to (5.5221245 5.5221245 5.5221245)
  1 by 1 by 1 MPI processor grid
  reading atoms ...
  12 atoms
  read_data CPU = 0.003 seconds
pair_style reaxff NULL checkqeq yes
pair_coeff * * C:/Users/user/Documents/School/FFparamOpt/reax_ff_sim/ffield.reax O Ce
fix qeq all qeq/reaxff 1 0.0 10.0 1.0e-6 reaxff
neighbor 2.0 bin
neigh_modify every 1 delay 0 check yes
comm_modify vel yes
compute eng all pe/atom
compute eatoms all reduce sum c_eng
fix efield all efield 5.0 0.0 0.0 region box
reset_timestep 0
thermo 10
thermo_style custom step pe lx ly lz press pxx pyy pzz c_eatoms
min_style cg
minimize 1e-25 1e-25 5000 10000
Neighbor list info ...
  update: every = 1 steps, delay = 0 steps, check = yes
  max neighbors/atom: 2000, page size: 100000
  master list distance cutoff = 12
  ghost atom cutoff = 12
  binsize = 6, bins = 1 1 1
  2 neighbor lists, perpetual/occasional/extra = 2 0 0
  (1) pair reaxff, perpetual
      attributes: half, newton off, ghost
      pair build: half/bin/newtoff/ghost
      stencil: full/ghost/bin/3d
      bin: standard
  (2) fix qeq/reaxff, perpetual, copy from (1)
      attributes: half, newton off
      pair build: copy
      stencil: none
      bin: none
Per MPI rank memory allocation (min/avg/max) = 12.65 | 12.65 | 12.65 Mbytes
   Step         PotEng           Lx             Ly             Lz           Press           Pxx            Pyy            Pzz          c_eatoms   
         0  -1010.6559      4.1426978      5.5221245      5.5221245      1372676.7      937288.68      1590370.8      1590370.8     -1010.6559    
        10  -1124.4765      4.1426978      5.5221245      5.5221245      1053691.1      390820.1       1385126.6      1385126.6     -1124.4765    
        11  -1124.4757      4.1426978      5.5221245      5.5221245      1053690.9      390819.81      1385126.4      1385126.4     -1124.4757    
Loop time of 0.389853 on 1 procs for 11 steps with 12 atoms

96.2% CPU use with 1 MPI tasks x 1 OpenMP threads

Minimization stats:
  Stopping criterion = linesearch alpha is zero
  Energy initial, next-to-last, final = 
     -1010.65588087293  -1124.47653185568  -1124.47571375879
  Force two-norm initial, final = 421.65894 202.65747
  Force max component initial, final = 164.85648 129.24357
  Final line search alpha, max atom move = 1.8014944e-13 2.3283157e-11
  Iterations, force evaluations = 11 197

MPI task timing breakdown:
Section |  min time  |  avg time  |  max time  |%varavg| %total
---------------------------------------------------------------
Pair    | 0.37073    | 0.37073    | 0.37073    |   0.0 | 95.09
Neigh   | 0          | 0          | 0          |   0.0 |  0.00
Comm    | 0.000712   | 0.000712   | 0.000712   |   0.0 |  0.18
Output  | 2.3e-05    | 2.3e-05    | 2.3e-05    |   0.0 |  0.01
Modify  | 0.018016   | 0.018016   | 0.018016   |   0.0 |  4.62
Other   |            | 0.000375   |            |       |  0.10

Nlocal:             12 ave          12 max          12 min
Histogram: 1 0 0 0 0 0 0 0 0 0
Nghost:            309 ave         309 max         309 min
Histogram: 1 0 0 0 0 0 0 0 0 0
Neighs:           2038 ave        2038 max        2038 min
Histogram: 1 0 0 0 0 0 0 0 0 0

Total # of neighbors = 2038
Ave neighs/atom = 169.83333
Neighbor list builds = 0
Dangerous builds = 0
clear
OMP_NUM_THREADS environment is not set. Defaulting to 1 thread. (src/comm.cpp:98)
  using 1 OpenMP thread(s) per MPI task
Loaded 1 plugins from C:\Users\user\AppData\Local\LAMMPS 64-bit 2Aug2023\plugins
units real
dimension 3
boundary s p p
atom_style charge
atom_modify map array
variable nx equal 2
variable ny equal 2
variable nz equal 2
variable total_cells equal ${nx}*${ny}*${nz}
variable total_cells equal 2*${ny}*${nz}
variable total_cells equal 2*2*${nz}
variable total_cells equal 2*2*2
region box block 0 ${nx} 0 ${ny} 0 ${nz}
region box block 0 2 0 ${ny} 0 ${nz}
region box block 0 2 0 2 0 ${nz}
region box block 0 2 0 2 0 2
read_data C:/Users/user/Documents/School/FFparamOpt/reax_ff_sim/ceo2_reaxff/geometry_file/fluorite_scaled/ceO2_fluorite_1.020.lmp
Reading data file ...
  orthogonal box = (0 0 0) to (5.576799 5.576799 5.576799)
  1 by 1 by 1 MPI processor grid
  reading atoms ...
  12 atoms
  read_data CPU = 0.002 seconds
pair_style reaxff NULL checkqeq yes
pair_coeff * * C:/Users/user/Documents/School/FFparamOpt/reax_ff_sim/ffield.reax O Ce
fix qeq all qeq/reaxff 1 0.0 10.0 1.0e-6 reaxff
neighbor 2.0 bin
neigh_modify every 1 delay 0 check yes
comm_modify vel yes
compute eng all pe/atom
compute eatoms all reduce sum c_eng
fix efield all efield 5.0 0.0 0.0 region box
reset_timestep 0
thermo 10
thermo_style custom step pe lx ly lz press pxx pyy pzz c_eatoms
min_style cg
minimize 1e-25 1e-25 5000 10000
Neighbor list info ...
  update: every = 1 steps, delay = 0 steps, check = yes
  max neighbors/atom: 2000, page size: 100000
  master list distance cutoff = 12
  ghost atom cutoff = 12
  binsize = 6, bins = 1 1 1
  2 neighbor lists, perpetual/occasional/extra = 2 0 0
  (1) pair reaxff, perpetual
      attributes: half, newton off, ghost
      pair build: half/bin/newtoff/ghost
      stencil: full/ghost/bin/3d
      bin: standard
  (2) fix qeq/reaxff, perpetual, copy from (1)
      attributes: half, newton off
      pair build: copy
      stencil: none
      bin: none
Per MPI rank memory allocation (min/avg/max) = 12.65 | 12.65 | 12.65 Mbytes
   Step         PotEng           Lx             Ly             Lz           Press           Pxx            Pyy            Pzz          c_eatoms   
         0  -1082.6256      4.1837146      5.576799       5.576799       1187813.2      805822.51      1378808.5      1378808.5     -1082.6256    
         9  -1172.8245      4.1837146      5.576799       5.576799       947620.85      374035.82      1234413.4      1234413.4     -1172.8245    
Loop time of 0.287547 on 1 procs for 9 steps with 12 atoms

97.8% CPU use with 1 MPI tasks x 1 OpenMP threads

Minimization stats:
  Stopping criterion = linesearch alpha is zero
  Energy initial, next-to-last, final = 
     -1082.62558323252  -1172.82472804699  -1172.82452603917
  Force two-norm initial, final = 380.55847 194.65991
  Force max component initial, final = 147.21824 118.36982
  Final line search alpha, max atom move = 1.9669831e-13 2.3283145e-11
  Iterations, force evaluations = 9 153

MPI task timing breakdown:
Section |  min time  |  avg time  |  max time  |%varavg| %total
---------------------------------------------------------------
Pair    | 0.27412    | 0.27412    | 0.27412    |   0.0 | 95.33
Neigh   | 0          | 0          | 0          |   0.0 |  0.00
Comm    | 0.000491   | 0.000491   | 0.000491   |   0.0 |  0.17
Output  | 0          | 0          | 0          |   0.0 |  0.00
Modify  | 0.012662   | 0.012662   | 0.012662   |   0.0 |  4.40
Other   |            | 0.000269   |            |       |  0.09

Nlocal:             12 ave          12 max          12 min
Histogram: 1 0 0 0 0 0 0 0 0 0
Nghost:            309 ave         309 max         309 min
Histogram: 1 0 0 0 0 0 0 0 0 0
Neighs:           1942 ave        1942 max        1942 min
Histogram: 1 0 0 0 0 0 0 0 0 0

Total # of neighbors = 1942
Ave neighs/atom = 161.83333
Neighbor list builds = 0
Dangerous builds = 0
clear
OMP_NUM_THREADS environment is not set. Defaulting to 1 thread. (src/comm.cpp:98)
  using 1 OpenMP thread(s) per MPI task
Loaded 1 plugins from C:\Users\user\AppData\Local\LAMMPS 64-bit 2Aug2023\plugins
units real
dimension 3
boundary s p p
atom_style charge
atom_modify map array
variable nx equal 2
variable ny equal 2
variable nz equal 2
variable total_cells equal ${nx}*${ny}*${nz}
variable total_cells equal 2*${ny}*${nz}
variable total_cells equal 2*2*${nz}
variable total_cells equal 2*2*2
region box block 0 ${nx} 0 ${ny} 0 ${nz}
region box block 0 2 0 ${ny} 0 ${nz}
region box block 0 2 0 2 0 ${nz}
region box block 0 2 0 2 0 2
read_data C:/Users/user/Documents/School/FFparamOpt/reax_ff_sim/ceo2_reaxff/geometry_file/fluorite_scaled/ceO2_fluorite_1.030.lmp
Reading data file ...
  orthogonal box = (0 0 0) to (5.6314735 5.6314735 5.6314735)
  1 by 1 by 1 MPI processor grid
  reading atoms ...
  12 atoms
  read_data CPU = 0.003 seconds
pair_style reaxff NULL checkqeq yes
pair_coeff * * C:/Users/user/Documents/School/FFparamOpt/reax_ff_sim/ffield.reax O Ce
fix qeq all qeq/reaxff 1 0.0 10.0 1.0e-6 reaxff
neighbor 2.0 bin
neigh_modify every 1 delay 0 check yes
comm_modify vel yes
compute eng all pe/atom
compute eatoms all reduce sum c_eng
fix efield all efield 5.0 0.0 0.0 region box
reset_timestep 0
thermo 10
thermo_style custom step pe lx ly lz press pxx pyy pzz c_eatoms
min_style cg
minimize 1e-25 1e-25 5000 10000
Neighbor list info ...
  update: every = 1 steps, delay = 0 steps, check = yes
  max neighbors/atom: 2000, page size: 100000
  master list distance cutoff = 12
  ghost atom cutoff = 12
  binsize = 6, bins = 1 1 1
  2 neighbor lists, perpetual/occasional/extra = 2 0 0
  (1) pair reaxff, perpetual
      attributes: half, newton off, ghost
      pair build: half/bin/newtoff/ghost
      stencil: full/ghost/bin/3d
      bin: standard
  (2) fix qeq/reaxff, perpetual, copy from (1)
      attributes: half, newton off
      pair build: copy
      stencil: none
      bin: none
Per MPI rank memory allocation (min/avg/max) = 12.65 | 12.65 | 12.65 Mbytes
   Step         PotEng           Lx             Ly             Lz           Press           Pxx            Pyy            Pzz          c_eatoms   
         0  -1146.1392      4.2247314      5.6314735      5.6314735      1023607        688529.82      1191145.6      1191145.6     -1146.1392    
         8  -1217.2641      4.2247314      5.6314735      5.6314735      831549.35      336266.77      1079190.6      1079190.6     -1217.2641    
Loop time of 0.261927 on 1 procs for 8 steps with 12 atoms

101.4% CPU use with 1 MPI tasks x 1 OpenMP threads

Minimization stats:
  Stopping criterion = linesearch alpha is zero
  Energy initial, next-to-last, final = 
      -1146.1391785882  -1217.26452485704     -1217.26409586
  Force two-norm initial, final = 344.50284 188.70139
  Force max component initial, final = 131.29694 114.73953
  Final line search alpha, max atom move = 2.0292207e-13 2.3283183e-11
  Iterations, force evaluations = 8 143

MPI task timing breakdown:
Section |  min time  |  avg time  |  max time  |%varavg| %total
---------------------------------------------------------------
Pair    | 0.25001    | 0.25001    | 0.25001    |   0.0 | 95.45
Neigh   | 0          | 0          | 0          |   0.0 |  0.00
Comm    | 0.000455   | 0.000455   | 0.000455   |   0.0 |  0.17
Output  | 0          | 0          | 0          |   0.0 |  0.00
Modify  | 0.011258   | 0.011258   | 0.011258   |   0.0 |  4.30
Other   |            | 0.0002     |            |       |  0.08

Nlocal:             12 ave          12 max          12 min
Histogram: 1 0 0 0 0 0 0 0 0 0
Nghost:            309 ave         309 max         309 min
Histogram: 1 0 0 0 0 0 0 0 0 0
Neighs:           1942 ave        1942 max        1942 min
Histogram: 1 0 0 0 0 0 0 0 0 0

Total # of neighbors = 1942
Ave neighs/atom = 161.83333
Neighbor list builds = 0
Dangerous builds = 0
clear
OMP_NUM_THREADS environment is not set. Defaulting to 1 thread. (src/comm.cpp:98)
  using 1 OpenMP thread(s) per MPI task
Loaded 1 plugins from C:\Users\user\AppData\Local\LAMMPS 64-bit 2Aug2023\plugins
units real
dimension 3
boundary s p p
atom_style charge
atom_modify map array
variable nx equal 2
variable ny equal 2
variable nz equal 2
variable total_cells equal ${nx}*${ny}*${nz}
variable total_cells equal 2*${ny}*${nz}
variable total_cells equal 2*2*${nz}
variable total_cells equal 2*2*2
region box block 0 ${nx} 0 ${ny} 0 ${nz}
region box block 0 2 0 ${ny} 0 ${nz}
region box block 0 2 0 2 0 ${nz}
region box block 0 2 0 2 0 2
read_data C:/Users/user/Documents/School/FFparamOpt/reax_ff_sim/ceo2_reaxff/geometry_file/fluorite_scaled/ceO2_fluorite_1.040.lmp
Reading data file ...
  orthogonal box = (0 0 0) to (5.686148 5.686148 5.686148)
  1 by 1 by 1 MPI processor grid
  reading atoms ...
  12 atoms
  read_data CPU = 0.002 seconds
pair_style reaxff NULL checkqeq yes
pair_coeff * * C:/Users/user/Documents/School/FFparamOpt/reax_ff_sim/ffield.reax O Ce
fix qeq all qeq/reaxff 1 0.0 10.0 1.0e-6 reaxff
neighbor 2.0 bin
neigh_modify every 1 delay 0 check yes
comm_modify vel yes
compute eng all pe/atom
compute eatoms all reduce sum c_eng
fix efield all efield 5.0 0.0 0.0 region box
reset_timestep 0
thermo 10
thermo_style custom step pe lx ly lz press pxx pyy pzz c_eatoms
min_style cg
minimize 1e-25 1e-25 5000 10000
Neighbor list info ...
  update: every = 1 steps, delay = 0 steps, check = yes
  max neighbors/atom: 2000, page size: 100000
  master list distance cutoff = 12
  ghost atom cutoff = 12
  binsize = 6, bins = 1 1 1
  2 neighbor lists, perpetual/occasional/extra = 2 0 0
  (1) pair reaxff, perpetual
      attributes: half, newton off, ghost
      pair build: half/bin/newtoff/ghost
      stencil: full/ghost/bin/3d
      bin: standard
  (2) fix qeq/reaxff, perpetual, copy from (1)
      attributes: half, newton off
      pair build: copy
      stencil: none
      bin: none
Per MPI rank memory allocation (min/avg/max) = 12.65 | 12.65 | 12.65 Mbytes
   Step         PotEng           Lx             Ly             Lz           Press           Pxx            Pyy            Pzz          c_eatoms   
         0  -1201.9009      4.2657482      5.686148       5.686148       876433.13      582521.51      1023388.9      1023388.9     -1201.9009    
         9  -1256.9686      4.2657482      5.686148       5.686148       746095.94      321166.44      958560.69      958560.69     -1256.9686    
Loop time of 0.319838 on 1 procs for 9 steps with 12 atoms

102.6% CPU use with 1 MPI tasks x 1 OpenMP threads

Minimization stats:
  Stopping criterion = linesearch alpha is zero
  Energy initial, next-to-last, final = 
     -1201.90087963339  -1256.96924847648  -1256.96860356886
  Force two-norm initial, final = 312.80467 190.2409
  Force max component initial, final = 116.76737 109.9405
  Final line search alpha, max atom move = 2.1177958e-13 2.3283154e-11
  Iterations, force evaluations = 9 176

MPI task timing breakdown:
Section |  min time  |  avg time  |  max time  |%varavg| %total
---------------------------------------------------------------
Pair    | 0.30534    | 0.30534    | 0.30534    |   0.0 | 95.47
Neigh   | 0          | 0          | 0          |   0.0 |  0.00
Comm    | 0.000522   | 0.000522   | 0.000522   |   0.0 |  0.16
Output  | 0          | 0          | 0          |   0.0 |  0.00
Modify  | 0.013741   | 0.013741   | 0.013741   |   0.0 |  4.30
Other   |            | 0.000238   |            |       |  0.07

Nlocal:             12 ave          12 max          12 min
Histogram: 1 0 0 0 0 0 0 0 0 0
Nghost:            309 ave         309 max         309 min
Histogram: 1 0 0 0 0 0 0 0 0 0
Neighs:           1798 ave        1798 max        1798 min
Histogram: 1 0 0 0 0 0 0 0 0 0

Total # of neighbors = 1798
Ave neighs/atom = 149.83333
Neighbor list builds = 0
Dangerous builds = 0
clear
OMP_NUM_THREADS environment is not set. Defaulting to 1 thread. (src/comm.cpp:98)
  using 1 OpenMP thread(s) per MPI task
Loaded 1 plugins from C:\Users\user\AppData\Local\LAMMPS 64-bit 2Aug2023\plugins
units real
dimension 3
boundary s p p
atom_style charge
atom_modify map array
variable nx equal 2
variable ny equal 2
variable nz equal 2
variable total_cells equal ${nx}*${ny}*${nz}
variable total_cells equal 2*${ny}*${nz}
variable total_cells equal 2*2*${nz}
variable total_cells equal 2*2*2
region box block 0 ${nx} 0 ${ny} 0 ${nz}
region box block 0 2 0 ${ny} 0 ${nz}
region box block 0 2 0 2 0 ${nz}
region box block 0 2 0 2 0 2
read_data C:/Users/user/Documents/School/FFparamOpt/reax_ff_sim/ceo2_reaxff/geometry_file/fluorite_scaled/ceO2_fluorite_1.050.lmp
Reading data file ...
  orthogonal box = (0 0 0) to (5.7408225 5.7408225 5.7408225)
  1 by 1 by 1 MPI processor grid
  reading atoms ...
  12 atoms
  read_data CPU = 0.002 seconds
pair_style reaxff NULL checkqeq yes
pair_coeff * * C:/Users/user/Documents/School/FFparamOpt/reax_ff_sim/ffield.reax O Ce
fix qeq all qeq/reaxff 1 0.0 10.0 1.0e-6 reaxff
neighbor 2.0 bin
neigh_modify every 1 delay 0 check yes
comm_modify vel yes
compute eng all pe/atom
compute eatoms all reduce sum c_eng
fix efield all efield 5.0 0.0 0.0 region box
reset_timestep 0
thermo 10
thermo_style custom step pe lx ly lz press pxx pyy pzz c_eatoms
min_style cg
minimize 1e-25 1e-25 5000 10000
Neighbor list info ...
  update: every = 1 steps, delay = 0 steps, check = yes
  max neighbors/atom: 2000, page size: 100000
  master list distance cutoff = 12
  ghost atom cutoff = 12
  binsize = 6, bins = 1 1 1
  2 neighbor lists, perpetual/occasional/extra = 2 0 0
  (1) pair reaxff, perpetual
      attributes: half, newton off, ghost
      pair build: half/bin/newtoff/ghost
      stencil: full/ghost/bin/3d
      bin: standard
  (2) fix qeq/reaxff, perpetual, copy from (1)
      attributes: half, newton off
      pair build: copy
      stencil: none
      bin: none
Per MPI rank memory allocation (min/avg/max) = 12.65 | 12.65 | 12.65 Mbytes
   Step         PotEng           Lx             Ly             Lz           Press           Pxx            Pyy            Pzz          c_eatoms   
         0  -1250.4867      4.306765       5.7408225      5.7408225      743565.45      485783.61      872456.36      872456.36     -1250.4867    
         7  -1294.2563      4.306765       5.7408225      5.7408225      636468.94      274239.51      817583.66      817583.66     -1294.2563    
Loop time of 0.274205 on 1 procs for 7 steps with 12 atoms

96.9% CPU use with 1 MPI tasks x 1 OpenMP threads

Minimization stats:
  Stopping criterion = linesearch alpha is zero
  Energy initial, next-to-last, final = 
     -1250.48666809405   -1294.2564544441  -1294.25629421012
  Force two-norm initial, final = 285.07418 180.45165
  Force max component initial, final = 103.3962 102.75567
  Final line search alpha, max atom move = 2.2658682e-13 2.328308e-11
  Iterations, force evaluations = 7 143

MPI task timing breakdown:
Section |  min time  |  avg time  |  max time  |%varavg| %total
---------------------------------------------------------------
Pair    | 0.2614     | 0.2614     | 0.2614     |   0.0 | 95.33
Neigh   | 0          | 0          | 0          |   0.0 |  0.00
Comm    | 0.000583   | 0.000583   | 0.000583   |   0.0 |  0.21
Output  | 0          | 0          | 0          |   0.0 |  0.00
Modify  | 0.011932   | 0.011932   | 0.011932   |   0.0 |  4.35
Other   |            | 0.000292   |            |       |  0.11

Nlocal:             12 ave          12 max          12 min
Histogram: 1 0 0 0 0 0 0 0 0 0
Nghost:            309 ave         309 max         309 min
Histogram: 1 0 0 0 0 0 0 0 0 0
Neighs:           1798 ave        1798 max        1798 min
Histogram: 1 0 0 0 0 0 0 0 0 0

Total # of neighbors = 1798
Ave neighs/atom = 149.83333
Neighbor list builds = 0
Dangerous builds = 0
clear
OMP_NUM_THREADS environment is not set. Defaulting to 1 thread. (src/comm.cpp:98)
  using 1 OpenMP thread(s) per MPI task
Loaded 1 plugins from C:\Users\user\AppData\Local\LAMMPS 64-bit 2Aug2023\plugins
units real
dimension 3
boundary s p p
atom_style charge
atom_modify map array
variable nx equal 2
variable ny equal 2
variable nz equal 2
variable total_cells equal ${nx}*${ny}*${nz}
variable total_cells equal 2*${ny}*${nz}
variable total_cells equal 2*2*${nz}
variable total_cells equal 2*2*2
region box block 0 ${nx} 0 ${ny} 0 ${nz}
region box block 0 2 0 ${ny} 0 ${nz}
region box block 0 2 0 2 0 ${nz}
region box block 0 2 0 2 0 2
read_data C:/Users/user/Documents/School/FFparamOpt/reax_ff_sim/ceo2_reaxff/geometry_file/fluorite_scaled/ceO2_fluorite_1.060.lmp
Reading data file ...
  orthogonal box = (0 0 0) to (5.795497 5.795497 5.795497)
  1 by 1 by 1 MPI processor grid
  reading atoms ...
  12 atoms
  read_data CPU = 0.003 seconds
pair_style reaxff NULL checkqeq yes
pair_coeff * * C:/Users/user/Documents/School/FFparamOpt/reax_ff_sim/ffield.reax O Ce
fix qeq all qeq/reaxff 1 0.0 10.0 1.0e-6 reaxff
neighbor 2.0 bin
neigh_modify every 1 delay 0 check yes
comm_modify vel yes
compute eng all pe/atom
compute eatoms all reduce sum c_eng
fix efield all efield 5.0 0.0 0.0 region box
reset_timestep 0
thermo 10
thermo_style custom step pe lx ly lz press pxx pyy pzz c_eatoms
min_style cg
minimize 1e-25 1e-25 5000 10000
Neighbor list info ...
  update: every = 1 steps, delay = 0 steps, check = yes
  max neighbors/atom: 2000, page size: 100000
  master list distance cutoff = 12
  ghost atom cutoff = 12
  binsize = 6, bins = 1 1 1
  2 neighbor lists, perpetual/occasional/extra = 2 0 0
  (1) pair reaxff, perpetual
      attributes: half, newton off, ghost
      pair build: half/bin/newtoff/ghost
      stencil: full/ghost/bin/3d
      bin: standard
  (2) fix qeq/reaxff, perpetual, copy from (1)
      attributes: half, newton off
      pair build: copy
      stencil: none
      bin: none
Per MPI rank memory allocation (min/avg/max) = 12.02 | 12.02 | 12.02 Mbytes
   Step         PotEng           Lx             Ly             Lz           Press           Pxx            Pyy            Pzz          c_eatoms   
         0  -1292.386       4.3477818      5.795497       5.795497       623919.11      397844.6       736956.36      736956.36     -1292.386     
         4  -1323.4292      4.3477818      5.795497       5.795497       395690.73      81658.637      552706.77      552706.77     -1323.4292    
Loop time of 0.13208 on 1 procs for 4 steps with 12 atoms

106.5% CPU use with 1 MPI tasks x 1 OpenMP threads

Minimization stats:
  Stopping criterion = linesearch alpha is zero
  Energy initial, next-to-last, final = 
     -1292.38595136054  -1323.42982207429  -1323.42921359711
  Force two-norm initial, final = 261.53223 151.54435
  Force max component initial, final = 95.106288 119.62545
  Final line search alpha, max atom move = 3.8926724e-13 4.656627e-11
  Iterations, force evaluations = 4 75

MPI task timing breakdown:
Section |  min time  |  avg time  |  max time  |%varavg| %total
---------------------------------------------------------------
Pair    | 0.12584    | 0.12584    | 0.12584    |   0.0 | 95.28
Neigh   | 0          | 0          | 0          |   0.0 |  0.00
Comm    | 0.00022    | 0.00022    | 0.00022    |   0.0 |  0.17
Output  | 0          | 0          | 0          |   0.0 |  0.00
Modify  | 0.005888   | 0.005888   | 0.005888   |   0.0 |  4.46
Other   |            | 0.000132   |            |       |  0.10

Nlocal:             12 ave          12 max          12 min
Histogram: 1 0 0 0 0 0 0 0 0 0
Nghost:            309 ave         309 max         309 min
Histogram: 1 0 0 0 0 0 0 0 0 0
Neighs:           1798 ave        1798 max        1798 min
Histogram: 1 0 0 0 0 0 0 0 0 0

Total # of neighbors = 1798
Ave neighs/atom = 149.83333
Neighbor list builds = 0
Dangerous builds = 0
clear
OMP_NUM_THREADS environment is not set. Defaulting to 1 thread. (src/comm.cpp:98)
  using 1 OpenMP thread(s) per MPI task
Loaded 1 plugins from C:\Users\user\AppData\Local\LAMMPS 64-bit 2Aug2023\plugins
units real
dimension 3
boundary s p p
atom_style charge
atom_modify map array
variable nx equal 2
variable ny equal 2
variable nz equal 2
variable total_cells equal ${nx}*${ny}*${nz}
variable total_cells equal 2*${ny}*${nz}
variable total_cells equal 2*2*${nz}
variable total_cells equal 2*2*2
region box block 0 ${nx} 0 ${ny} 0 ${nz}
region box block 0 2 0 ${ny} 0 ${nz}
region box block 0 2 0 2 0 ${nz}
region box block 0 2 0 2 0 2
read_data C:/Users/user/Documents/School/FFparamOpt/reax_ff_sim/ceo2_reaxff/geometry_file/fluorite_scaled/ceO2_fluorite_1.070.lmp
Reading data file ...
  orthogonal box = (0 0 0) to (5.8501715 5.8501715 5.8501715)
  1 by 1 by 1 MPI processor grid
  reading atoms ...
  12 atoms
  read_data CPU = 0.002 seconds
pair_style reaxff NULL checkqeq yes
pair_coeff * * C:/Users/user/Documents/School/FFparamOpt/reax_ff_sim/ffield.reax O Ce
fix qeq all qeq/reaxff 1 0.0 10.0 1.0e-6 reaxff
neighbor 2.0 bin
neigh_modify every 1 delay 0 check yes
comm_modify vel yes
compute eng all pe/atom
compute eatoms all reduce sum c_eng
fix efield all efield 5.0 0.0 0.0 region box
reset_timestep 0
thermo 10
thermo_style custom step pe lx ly lz press pxx pyy pzz c_eatoms
min_style cg
minimize 1e-25 1e-25 5000 10000
Neighbor list info ...
  update: every = 1 steps, delay = 0 steps, check = yes
  max neighbors/atom: 2000, page size: 100000
  master list distance cutoff = 12
  ghost atom cutoff = 12
  binsize = 6, bins = 1 1 1
  2 neighbor lists, perpetual/occasional/extra = 2 0 0
  (1) pair reaxff, perpetual
      attributes: half, newton off, ghost
      pair build: half/bin/newtoff/ghost
      stencil: full/ghost/bin/3d
      bin: standard
  (2) fix qeq/reaxff, perpetual, copy from (1)
      attributes: half, newton off
      pair build: copy
      stencil: none
      bin: none
Per MPI rank memory allocation (min/avg/max) = 12.02 | 12.02 | 12.02 Mbytes
   Step         PotEng           Lx             Ly             Lz           Press           Pxx            Pyy            Pzz          c_eatoms   
         0  -1328.4362      4.3887987      5.8501715      5.8501715      535392.35      337143.61      634516.72      634516.72     -1328.4362    
         3  -1343.6888      4.3887987      5.8501715      5.8501715      336352.93      96053.408      456502.69      456502.69     -1343.6888    
Loop time of 0.133069 on 1 procs for 3 steps with 12 atoms

105.7% CPU use with 1 MPI tasks x 1 OpenMP threads

Minimization stats:
  Stopping criterion = linesearch alpha is zero
  Energy initial, next-to-last, final = 
       -1328.436235421  -1343.68899461342  -1343.68882558588
  Force two-norm initial, final = 249.79495 161.87018
  Force max component initial, final = 93.660983 109.42021
  Final line search alpha, max atom move = 4.2557211e-13 4.6566189e-11
  Iterations, force evaluations = 3 75

MPI task timing breakdown:
Section |  min time  |  avg time  |  max time  |%varavg| %total
---------------------------------------------------------------
Pair    | 0.12665    | 0.12665    | 0.12665    |   0.0 | 95.17
Neigh   | 0          | 0          | 0          |   0.0 |  0.00
Comm    | 0.00023    | 0.00023    | 0.00023    |   0.0 |  0.17
Output  | 0          | 0          | 0          |   0.0 |  0.00
Modify  | 0.006059   | 0.006059   | 0.006059   |   0.0 |  4.55
Other   |            | 0.000134   |            |       |  0.10

Nlocal:             12 ave          12 max          12 min
Histogram: 1 0 0 0 0 0 0 0 0 0
Nghost:            309 ave         309 max         309 min
Histogram: 1 0 0 0 0 0 0 0 0 0
Neighs:           1702 ave        1702 max        1702 min
Histogram: 1 0 0 0 0 0 0 0 0 0

Total # of neighbors = 1702
Ave neighs/atom = 141.83333
Neighbor list builds = 0
Dangerous builds = 0
clear
OMP_NUM_THREADS environment is not set. Defaulting to 1 thread. (src/comm.cpp:98)
  using 1 OpenMP thread(s) per MPI task
Loaded 1 plugins from C:\Users\user\AppData\Local\LAMMPS 64-bit 2Aug2023\plugins
units real
dimension 3
boundary s p p
atom_style charge
atom_modify map array
variable nx equal 2
variable ny equal 2
variable nz equal 2
variable total_cells equal ${nx}*${ny}*${nz}
variable total_cells equal 2*${ny}*${nz}
variable total_cells equal 2*2*${nz}
variable total_cells equal 2*2*2
region box block 0 ${nx} 0 ${ny} 0 ${nz}
region box block 0 2 0 ${ny} 0 ${nz}
region box block 0 2 0 2 0 ${nz}
region box block 0 2 0 2 0 2
read_data C:/Users/user/Documents/School/FFparamOpt/reax_ff_sim/ceo2_reaxff/geometry_file/fluorite_scaled/ceO2_fluorite_1.080.lmp
Reading data file ...
  orthogonal box = (0 0 0) to (5.904846 5.904846 5.904846)
  1 by 1 by 1 MPI processor grid
  reading atoms ...
  12 atoms
  read_data CPU = 0.003 seconds
pair_style reaxff NULL checkqeq yes
pair_coeff * * C:/Users/user/Documents/School/FFparamOpt/reax_ff_sim/ffield.reax O Ce
fix qeq all qeq/reaxff 1 0.0 10.0 1.0e-6 reaxff
neighbor 2.0 bin
neigh_modify every 1 delay 0 check yes
comm_modify vel yes
compute eng all pe/atom
compute eatoms all reduce sum c_eng
fix efield all efield 5.0 0.0 0.0 region box
reset_timestep 0
thermo 10
thermo_style custom step pe lx ly lz press pxx pyy pzz c_eatoms
min_style cg
minimize 1e-25 1e-25 5000 10000
Neighbor list info ...
  update: every = 1 steps, delay = 0 steps, check = yes
  max neighbors/atom: 2000, page size: 100000
  master list distance cutoff = 12
  ghost atom cutoff = 12
  binsize = 6, bins = 1 1 1
  2 neighbor lists, perpetual/occasional/extra = 2 0 0
  (1) pair reaxff, perpetual
      attributes: half, newton off, ghost
      pair build: half/bin/newtoff/ghost
      stencil: full/ghost/bin/3d
      bin: standard
  (2) fix qeq/reaxff, perpetual, copy from (1)
      attributes: half, newton off
      pair build: copy
      stencil: none
      bin: none
Per MPI rank memory allocation (min/avg/max) = 12.02 | 12.02 | 12.02 Mbytes
   Step         PotEng           Lx             Ly             Lz           Press           Pxx            Pyy            Pzz          c_eatoms   
         0  -1356.5332      4.4298155      5.904846       5.904846       234648.48      60795.673      321574.89      321574.89     -1356.5332    
         1  -1356.5328      4.4298155      5.904846       5.904846       234648.35      60795.517      321574.77      321574.77     -1356.5328    
Loop time of 0.071383 on 1 procs for 1 steps with 12 atoms

87.6% CPU use with 1 MPI tasks x 1 OpenMP threads

Minimization stats:
  Stopping criterion = linesearch alpha is zero
  Energy initial, next-to-last, final = 
     -1356.53322216093  -1356.53322216093  -1356.53275312556
  Force two-norm initial, final = 173.33364 173.33377
  Force max component initial, final = 107.25175 107.25185
  Final line search alpha, max atom move = 2.1708796e-13 2.3283085e-11
  Iterations, force evaluations = 1 40

MPI task timing breakdown:
Section |  min time  |  avg time  |  max time  |%varavg| %total
---------------------------------------------------------------
Pair    | 0.067982   | 0.067982   | 0.067982   |   0.0 | 95.24
Neigh   | 0          | 0          | 0          |   0.0 |  0.00
Comm    | 0.000107   | 0.000107   | 0.000107   |   0.0 |  0.15
Output  | 0          | 0          | 0          |   0.0 |  0.00
Modify  | 0.003209   | 0.003209   | 0.003209   |   0.0 |  4.50
Other   |            | 8.5e-05    |            |       |  0.12

Nlocal:             12 ave          12 max          12 min
Histogram: 1 0 0 0 0 0 0 0 0 0
Nghost:            309 ave         309 max         309 min
Histogram: 1 0 0 0 0 0 0 0 0 0
Neighs:           1670 ave        1670 max        1670 min
Histogram: 1 0 0 0 0 0 0 0 0 0

Total # of neighbors = 1670
Ave neighs/atom = 139.16667
Neighbor list builds = 0
Dangerous builds = 0
clear
OMP_NUM_THREADS environment is not set. Defaulting to 1 thread. (src/comm.cpp:98)
  using 1 OpenMP thread(s) per MPI task
Loaded 1 plugins from C:\Users\user\AppData\Local\LAMMPS 64-bit 2Aug2023\plugins
units real
dimension 3
boundary s p p
atom_style charge
atom_modify map array
variable nx equal 2
variable ny equal 2
variable nz equal 2
variable total_cells equal ${nx}*${ny}*${nz}
variable total_cells equal 2*${ny}*${nz}
variable total_cells equal 2*2*${nz}
variable total_cells equal 2*2*2
region box block 0 ${nx} 0 ${ny} 0 ${nz}
region box block 0 2 0 ${ny} 0 ${nz}
region box block 0 2 0 2 0 ${nz}
region box block 0 2 0 2 0 2
read_data C:/Users/user/Documents/School/FFparamOpt/reax_ff_sim/ceo2_reaxff/geometry_file/fluorite_scaled/ceO2_fluorite_1.090.lmp
Reading data file ...
  orthogonal box = (0 0 0) to (5.9595205 5.9595205 5.9595205)
  1 by 1 by 1 MPI processor grid
  reading atoms ...
  12 atoms
  read_data CPU = 0.002 seconds
pair_style reaxff NULL checkqeq yes
pair_coeff * * C:/Users/user/Documents/School/FFparamOpt/reax_ff_sim/ffield.reax O Ce
fix qeq all qeq/reaxff 1 0.0 10.0 1.0e-6 reaxff
neighbor 2.0 bin
neigh_modify every 1 delay 0 check yes
comm_modify vel yes
compute eng all pe/atom
compute eatoms all reduce sum c_eng
fix efield all efield 5.0 0.0 0.0 region box
reset_timestep 0
thermo 10
thermo_style custom step pe lx ly lz press pxx pyy pzz c_eatoms
min_style cg
minimize 1e-25 1e-25 5000 10000
Neighbor list info ...
  update: every = 1 steps, delay = 0 steps, check = yes
  max neighbors/atom: 2000, page size: 100000
  master list distance cutoff = 12
  ghost atom cutoff = 12
  binsize = 6, bins = 1 1 1
  2 neighbor lists, perpetual/occasional/extra = 2 0 0
  (1) pair reaxff, perpetual
      attributes: half, newton off, ghost
      pair build: half/bin/newtoff/ghost
      stencil: full/ghost/bin/3d
      bin: standard
  (2) fix qeq/reaxff, perpetual, copy from (1)
      attributes: half, newton off
      pair build: copy
      stencil: none
      bin: none
Per MPI rank memory allocation (min/avg/max) = 12.02 | 12.02 | 12.02 Mbytes
   Step         PotEng           Lx             Ly             Lz           Press           Pxx            Pyy            Pzz          c_eatoms   
         0  -1368.21        4.4708323      5.9595205      5.9595205      136502.25     -15984.181      212745.46      212745.46     -1368.21      
         1  -1368.2096      4.4708323      5.9595205      5.9595205      136502.28     -15983.817      212745.33      212745.33     -1368.2096    
Loop time of 0.065025 on 1 procs for 1 steps with 12 atoms

96.1% CPU use with 1 MPI tasks x 1 OpenMP threads

Minimization stats:
  Stopping criterion = linesearch alpha is zero
  Energy initial, next-to-last, final = 
     -1368.21003359474  -1368.21003359474  -1368.20961882485
  Force two-norm initial, final = 167.08659 167.08662
  Force max component initial, final = 112.60014 112.60035
  Final line search alpha, max atom move = 4.1355303e-13 4.6566218e-11
  Iterations, force evaluations = 1 36

MPI task timing breakdown:
Section |  min time  |  avg time  |  max time  |%varavg| %total
---------------------------------------------------------------
Pair    | 0.061988   | 0.061988   | 0.061988   |   0.0 | 95.33
Neigh   | 0          | 0          | 0          |   0.0 |  0.00
Comm    | 0.000121   | 0.000121   | 0.000121   |   0.0 |  0.19
Output  | 0          | 0          | 0          |   0.0 |  0.00
Modify  | 0.002844   | 0.002844   | 0.002844   |   0.0 |  4.37
Other   |            | 7.2e-05    |            |       |  0.11

Nlocal:             12 ave          12 max          12 min
Histogram: 1 0 0 0 0 0 0 0 0 0
Nghost:            309 ave         309 max         309 min
Histogram: 1 0 0 0 0 0 0 0 0 0
Neighs:           1670 ave        1670 max        1670 min
Histogram: 1 0 0 0 0 0 0 0 0 0

Total # of neighbors = 1670
Ave neighs/atom = 139.16667
Neighbor list builds = 0
Dangerous builds = 0
clear
OMP_NUM_THREADS environment is not set. Defaulting to 1 thread. (src/comm.cpp:98)
  using 1 OpenMP thread(s) per MPI task
Loaded 1 plugins from C:\Users\user\AppData\Local\LAMMPS 64-bit 2Aug2023\plugins
units real
dimension 3
boundary s p p
atom_style charge
atom_modify map array
variable nx equal 2
variable ny equal 2
variable nz equal 2
variable total_cells equal ${nx}*${ny}*${nz}
variable total_cells equal 2*${ny}*${nz}
variable total_cells equal 2*2*${nz}
variable total_cells equal 2*2*2
region box block 0 ${nx} 0 ${ny} 0 ${nz}
region box block 0 2 0 ${ny} 0 ${nz}
region box block 0 2 0 2 0 ${nz}
region box block 0 2 0 2 0 2
read_data C:/Users/user/Documents/School/FFparamOpt/reax_ff_sim/ceo2_reaxff/geometry_file/fluorite_scaled/ceO2_fluorite_1.100.lmp
Reading data file ...
  orthogonal box = (0 0 0) to (6.014195 6.014195 6.014195)
  1 by 1 by 1 MPI processor grid
  reading atoms ...
  12 atoms
  read_data CPU = 0.002 seconds
pair_style reaxff NULL checkqeq yes
pair_coeff * * C:/Users/user/Documents/School/FFparamOpt/reax_ff_sim/ffield.reax O Ce
fix qeq all qeq/reaxff 1 0.0 10.0 1.0e-6 reaxff
neighbor 2.0 bin
neigh_modify every 1 delay 0 check yes
comm_modify vel yes
compute eng all pe/atom
compute eatoms all reduce sum c_eng
fix efield all efield 5.0 0.0 0.0 region box
reset_timestep 0
thermo 10
thermo_style custom step pe lx ly lz press pxx pyy pzz c_eatoms
min_style cg
minimize 1e-25 1e-25 5000 10000
Neighbor list info ...
  update: every = 1 steps, delay = 0 steps, check = yes
  max neighbors/atom: 2000, page size: 100000
  master list distance cutoff = 12
  ghost atom cutoff = 12
  binsize = 6, bins = 1 2 2
  2 neighbor lists, perpetual/occasional/extra = 2 0 0
  (1) pair reaxff, perpetual
      attributes: half, newton off, ghost
      pair build: half/bin/newtoff/ghost
      stencil: full/ghost/bin/3d
      bin: standard
  (2) fix qeq/reaxff, perpetual, copy from (1)
      attributes: half, newton off
      pair build: copy
      stencil: none
      bin: none
Per MPI rank memory allocation (min/avg/max) = 11.44 | 11.44 | 11.44 Mbytes
   Step         PotEng           Lx             Ly             Lz           Press           Pxx            Pyy            Pzz          c_eatoms   
         0  -1376.0789      4.5118491      6.014195       6.014195       78817.166     -54981.435      145716.47      145716.47     -1376.0789    
         1  -1376.0786      4.5118491      6.014195       6.014195       78817.111     -54981.317      145716.32      145716.32     -1376.0786    
Loop time of 0.064286 on 1 procs for 1 steps with 12 atoms

97.2% CPU use with 1 MPI tasks x 1 OpenMP threads

Minimization stats:
  Stopping criterion = linesearch alpha is zero
  Energy initial, next-to-last, final = 
     -1376.07888334152  -1376.07888334152  -1376.07857198724
  Force two-norm initial, final = 168.31182 168.31186
  Force max component initial, final = 111.68816 111.68829
  Final line search alpha, max atom move = 4.1692986e-13 4.6566184e-11
  Iterations, force evaluations = 1 36

MPI task timing breakdown:
Section |  min time  |  avg time  |  max time  |%varavg| %total
---------------------------------------------------------------
Pair    | 0.061119   | 0.061119   | 0.061119   |   0.0 | 95.07
Neigh   | 0          | 0          | 0          |   0.0 |  0.00
Comm    | 0.000118   | 0.000118   | 0.000118   |   0.0 |  0.18
Output  | 0          | 0          | 0          |   0.0 |  0.00
Modify  | 0.002965   | 0.002965   | 0.002965   |   0.0 |  4.61
Other   |            | 8.4e-05    |            |       |  0.13

Nlocal:             12 ave          12 max          12 min
Histogram: 1 0 0 0 0 0 0 0 0 0
Nghost:            269 ave         269 max         269 min
Histogram: 1 0 0 0 0 0 0 0 0 0
Neighs:           1622 ave        1622 max        1622 min
Histogram: 1 0 0 0 0 0 0 0 0 0

Total # of neighbors = 1622
Ave neighs/atom = 135.16667
Neighbor list builds = 0
Dangerous builds = 0
clear
OMP_NUM_THREADS environment is not set. Defaulting to 1 thread. (src/comm.cpp:98)
  using 1 OpenMP thread(s) per MPI task
Loaded 1 plugins from C:\Users\user\AppData\Local\LAMMPS 64-bit 2Aug2023\plugins
units real
dimension 3
boundary s p p
atom_style charge
atom_modify map array
variable nx equal 2
variable ny equal 2
variable nz equal 2
variable total_cells equal ${nx}*${ny}*${nz}
variable total_cells equal 2*${ny}*${nz}
variable total_cells equal 2*2*${nz}
variable total_cells equal 2*2*2
region box block 0 ${nx} 0 ${ny} 0 ${nz}
region box block 0 2 0 ${ny} 0 ${nz}
region box block 0 2 0 2 0 ${nz}
region box block 0 2 0 2 0 2
read_data C:/Users/user/Documents/School/FFparamOpt/reax_ff_sim/ceo2_reaxff/geometry_file/fluorite_scaled/ceO2_fluorite_1.110.lmp
Reading data file ...
  orthogonal box = (0 0 0) to (6.0688695 6.0688695 6.0688695)
  1 by 1 by 1 MPI processor grid
  reading atoms ...
  12 atoms
  read_data CPU = 0.002 seconds
pair_style reaxff NULL checkqeq yes
pair_coeff * * C:/Users/user/Documents/School/FFparamOpt/reax_ff_sim/ffield.reax O Ce
fix qeq all qeq/reaxff 1 0.0 10.0 1.0e-6 reaxff
neighbor 2.0 bin
neigh_modify every 1 delay 0 check yes
comm_modify vel yes
compute eng all pe/atom
compute eatoms all reduce sum c_eng
fix efield all efield 5.0 0.0 0.0 region box
reset_timestep 0
thermo 10
thermo_style custom step pe lx ly lz press pxx pyy pzz c_eatoms
min_style cg
minimize 1e-25 1e-25 5000 10000
Neighbor list info ...
  update: every = 1 steps, delay = 0 steps, check = yes
  max neighbors/atom: 2000, page size: 100000
  master list distance cutoff = 12
  ghost atom cutoff = 12
  binsize = 6, bins = 1 2 2
  2 neighbor lists, perpetual/occasional/extra = 2 0 0
  (1) pair reaxff, perpetual
      attributes: half, newton off, ghost
      pair build: half/bin/newtoff/ghost
      stencil: full/ghost/bin/3d
      bin: standard
  (2) fix qeq/reaxff, perpetual, copy from (1)
      attributes: half, newton off
      pair build: copy
      stencil: none
      bin: none
Per MPI rank memory allocation (min/avg/max) = 11.44 | 11.44 | 11.44 Mbytes
   Step         PotEng           Lx             Ly             Lz           Press           Pxx            Pyy            Pzz          c_eatoms   
         0  -1380.5303      4.5528659      6.0688695      6.0688695      30647.582     -86832.777      89387.762      89387.762     -1380.5303    
         1  -1380.53        4.5528659      6.0688695      6.0688695      30647.543     -86832.666      89387.647      89387.647     -1380.53      
Loop time of 0.052456 on 1 procs for 1 steps with 12 atoms

89.4% CPU use with 1 MPI tasks x 1 OpenMP threads

Minimization stats:
  Stopping criterion = linesearch alpha is zero
  Energy initial, next-to-last, final = 
     -1380.53031939613  -1380.53031939613  -1380.53003446497
  Force two-norm initial, final = 171.16319 171.16323
  Force max component initial, final = 110.61529 110.61541
  Final line search alpha, max atom move = 4.209737e-13 4.656618e-11
  Iterations, force evaluations = 1 36

MPI task timing breakdown:
Section |  min time  |  avg time  |  max time  |%varavg| %total
---------------------------------------------------------------
Pair    | 0.049644   | 0.049644   | 0.049644   |   0.0 | 94.64
Neigh   | 0          | 0          | 0          |   0.0 |  0.00
Comm    | 9.7e-05    | 9.7e-05    | 9.7e-05    |   0.0 |  0.18
Output  | 0          | 0          | 0          |   0.0 |  0.00
Modify  | 0.002647   | 0.002647   | 0.002647   |   0.0 |  5.05
Other   |            | 6.8e-05    |            |       |  0.13

Nlocal:             12 ave          12 max          12 min
Histogram: 1 0 0 0 0 0 0 0 0 0
Nghost:            269 ave         269 max         269 min
Histogram: 1 0 0 0 0 0 0 0 0 0
Neighs:           1622 ave        1622 max        1622 min
Histogram: 1 0 0 0 0 0 0 0 0 0

Total # of neighbors = 1622
Ave neighs/atom = 135.16667
Neighbor list builds = 0
Dangerous builds = 0
clear
OMP_NUM_THREADS environment is not set. Defaulting to 1 thread. (src/comm.cpp:98)
  using 1 OpenMP thread(s) per MPI task
Loaded 1 plugins from C:\Users\user\AppData\Local\LAMMPS 64-bit 2Aug2023\plugins
units real
dimension 3
boundary s p p
atom_style charge
atom_modify map array
variable nx equal 2
variable ny equal 2
variable nz equal 2
variable total_cells equal ${nx}*${ny}*${nz}
variable total_cells equal 2*${ny}*${nz}
variable total_cells equal 2*2*${nz}
variable total_cells equal 2*2*2
region box block 0 ${nx} 0 ${ny} 0 ${nz}
region box block 0 2 0 ${ny} 0 ${nz}
region box block 0 2 0 2 0 ${nz}
region box block 0 2 0 2 0 2
read_data C:/Users/user/Documents/School/FFparamOpt/reax_ff_sim/ceo2_reaxff/geometry_file/fluorite_scaled/ceO2_fluorite_1.120.lmp
Reading data file ...
  orthogonal box = (0 0 0) to (6.123544 6.123544 6.123544)
  1 by 1 by 1 MPI processor grid
  reading atoms ...
  12 atoms
  read_data CPU = 0.002 seconds
pair_style reaxff NULL checkqeq yes
pair_coeff * * C:/Users/user/Documents/School/FFparamOpt/reax_ff_sim/ffield.reax O Ce
fix qeq all qeq/reaxff 1 0.0 10.0 1.0e-6 reaxff
neighbor 2.0 bin
neigh_modify every 1 delay 0 check yes
comm_modify vel yes
compute eng all pe/atom
compute eatoms all reduce sum c_eng
fix efield all efield 5.0 0.0 0.0 region box
reset_timestep 0
thermo 10
thermo_style custom step pe lx ly lz press pxx pyy pzz c_eatoms
min_style cg
minimize 1e-25 1e-25 5000 10000
Neighbor list info ...
  update: every = 1 steps, delay = 0 steps, check = yes
  max neighbors/atom: 2000, page size: 100000
  master list distance cutoff = 12
  ghost atom cutoff = 12
  binsize = 6, bins = 1 2 2
  2 neighbor lists, perpetual/occasional/extra = 2 0 0
  (1) pair reaxff, perpetual
      attributes: half, newton off, ghost
      pair build: half/bin/newtoff/ghost
      stencil: full/ghost/bin/3d
      bin: standard
  (2) fix qeq/reaxff, perpetual, copy from (1)
      attributes: half, newton off
      pair build: copy
      stencil: none
      bin: none
Per MPI rank memory allocation (min/avg/max) = 11.44 | 11.44 | 11.44 Mbytes
   Step         PotEng           Lx             Ly             Lz           Press           Pxx            Pyy            Pzz          c_eatoms   
         0  -1382.1565      4.5938827      6.123544       6.123544      -6663.0553     -109927.83      44969.333      44969.333     -1382.1565    
         1  -1382.1564      4.5938827      6.123544       6.123544      -6663.1101     -109927.76      44969.212      44969.212     -1382.1564    
Loop time of 0.055767 on 1 procs for 1 steps with 12 atoms

84.1% CPU use with 1 MPI tasks x 1 OpenMP threads

Minimization stats:
  Stopping criterion = linesearch alpha is zero
  Energy initial, next-to-last, final = 
     -1382.15653475265  -1382.15653475265  -1382.15637759598
  Force two-norm initial, final = 174.76809 174.76809
  Force max component initial, final = 109.20336 109.20343
  Final line search alpha, max atom move = 2.1320831e-13 2.3283079e-11
  Iterations, force evaluations = 1 39

MPI task timing breakdown:
Section |  min time  |  avg time  |  max time  |%varavg| %total
---------------------------------------------------------------
Pair    | 0.052766   | 0.052766   | 0.052766   |   0.0 | 94.62
Neigh   | 0          | 0          | 0          |   0.0 |  0.00
Comm    | 9.6e-05    | 9.6e-05    | 9.6e-05    |   0.0 |  0.17
Output  | 0          | 0          | 0          |   0.0 |  0.00
Modify  | 0.002841   | 0.002841   | 0.002841   |   0.0 |  5.09
Other   |            | 6.4e-05    |            |       |  0.11

Nlocal:             12 ave          12 max          12 min
Histogram: 1 0 0 0 0 0 0 0 0 0
Nghost:            269 ave         269 max         269 min
Histogram: 1 0 0 0 0 0 0 0 0 0
Neighs:           1622 ave        1622 max        1622 min
Histogram: 1 0 0 0 0 0 0 0 0 0

Total # of neighbors = 1622
Ave neighs/atom = 135.16667
Neighbor list builds = 0
Dangerous builds = 0
clear
OMP_NUM_THREADS environment is not set. Defaulting to 1 thread. (src/comm.cpp:98)
  using 1 OpenMP thread(s) per MPI task
Loaded 1 plugins from C:\Users\user\AppData\Local\LAMMPS 64-bit 2Aug2023\plugins
units real
dimension 3
boundary s p p
atom_style charge
atom_modify map array
variable nx equal 2
variable ny equal 2
variable nz equal 2
variable total_cells equal ${nx}*${ny}*${nz}
variable total_cells equal 2*${ny}*${nz}
variable total_cells equal 2*2*${nz}
variable total_cells equal 2*2*2
region box block 0 ${nx} 0 ${ny} 0 ${nz}
region box block 0 2 0 ${ny} 0 ${nz}
region box block 0 2 0 2 0 ${nz}
region box block 0 2 0 2 0 2
read_data C:/Users/user/Documents/School/FFparamOpt/reax_ff_sim/ceo2_reaxff/geometry_file/fluorite_scaled/ceO2_fluorite_1.130.lmp
Reading data file ...
  orthogonal box = (0 0 0) to (6.1782185 6.1782185 6.1782185)
  1 by 1 by 1 MPI processor grid
  reading atoms ...
  12 atoms
  read_data CPU = 0.002 seconds
pair_style reaxff NULL checkqeq yes
pair_coeff * * C:/Users/user/Documents/School/FFparamOpt/reax_ff_sim/ffield.reax O Ce
fix qeq all qeq/reaxff 1 0.0 10.0 1.0e-6 reaxff
neighbor 2.0 bin
neigh_modify every 1 delay 0 check yes
comm_modify vel yes
compute eng all pe/atom
compute eatoms all reduce sum c_eng
fix efield all efield 5.0 0.0 0.0 region box
reset_timestep 0
thermo 10
thermo_style custom step pe lx ly lz press pxx pyy pzz c_eatoms
min_style cg
minimize 1e-25 1e-25 5000 10000
Neighbor list info ...
  update: every = 1 steps, delay = 0 steps, check = yes
  max neighbors/atom: 2000, page size: 100000
  master list distance cutoff = 12
  ghost atom cutoff = 12
  binsize = 6, bins = 1 2 2
  2 neighbor lists, perpetual/occasional/extra = 2 0 0
  (1) pair reaxff, perpetual
      attributes: half, newton off, ghost
      pair build: half/bin/newtoff/ghost
      stencil: full/ghost/bin/3d
      bin: standard
  (2) fix qeq/reaxff, perpetual, copy from (1)
      attributes: half, newton off
      pair build: copy
      stencil: none
      bin: none
Per MPI rank memory allocation (min/avg/max) = 11.44 | 11.44 | 11.44 Mbytes
   Step         PotEng           Lx             Ly             Lz           Press           Pxx            Pyy            Pzz          c_eatoms   
         0  -1381.5642      4.6348995      6.1782185      6.1782185     -34067.274     -124985.44      11391.809      11391.809     -1381.5642    
[...]
                                                                                                                                                                                                                                                                                                                                                                                                                                                                                                                                                                                                                                                                                                                                                                                                                                                                                                                                                                                                                                                                                                                                                                                                                                                                                                                                                                                                                                                                                                                                                                                                                                                                                                                                                                                                                                                                                                                                                                                                                                                                                                                                                                                                                                                                                                                                                                                                                                                                                                                                                                                                                                                                                                                                                                                                                                                                                                                                                                                                                                                                                                                                                                                                                                                                                                                                                                                                                                                                                                                                                                                                                                                                                                                                                                                                                                                                                                                                                                                                                                                                                                                                                                                                                                                                                                                                                                                                                                                                                                                                                                                                                                                                                                                                                                                                                                                                                                                                                                                                                                                                                                                                                                                                                                                                                                                                                                                                                                                                                                                                                                                                                                                                                                                                                                                                                                                                                                                                                                                                                                                                                                                                                                                                                                                                                                                                                                                                                                                                                                                                                                                                                                                                                                                                                                                                                                                                                                                                                                                                                                                                                                                                                                                                                                                                                                                                                                                                                                                                                                                                                                                                                                                                                                                                                                                                                                                                                                                                                                                                                                                                                                                                                                                                                                                                                                                                                                                                                                                                                                                                                                                                                                                                                                                                                                                                                                                                                                                                                                                                                                                                                                                                                                                                                                                                                                                                                                                                                                                                                                                                                                                                                                                                                                                                                                                                                                                                                                                                                                                                                                                                                                                                                                                                                                                                                                                                                                                                                                                                                                                                                                                                                                                                                                                                                                                                                                                                                                                                                                                                                                                                                                                                                                                                                                                                                                                                                                                                                                                                                                                                                                                                                                                                                                                                                                                                                                                                                                                                                                                                                                                                                                                                                                                                                                                                                                                                                                                                                                                                                                                                                                                                                                                                                                                                                                                                                                                                                                                                                                                                                                                                                                                                                                                                                                                                                                                                                                                                                                                                                                                                                                                                                                                                                                                                                                                                                                                                                                                                                                                                                                                                                                                                                                                                                                                                                                                                                                                                                                                                                                                                                                                                                                                                                                                                                                                                                                                                                                                                                                                                                                                                                                                                                                                                                                                                                                                                                                                                                                                                                                                                                                                                                                                                                                                                                                                                                                                                                                                                                                                                                                                                                                                                                                                                                                                                                                                                                                                                                                                                                                                                                                                                                                                                                                                                                                                                                                                                                                                                                                                                                                                                                                                                                                                                                                                                                                                                                                                                                                                                                                                                                                                                                                                                                                                                                                                                                                                                                                                                                                                                                                                                                                                                                                                                                                                                                                                                                                                                                                                                                                                                                                                                                                                                                                                                                                                                                                                                                                                                                                                                                                                                                                                                                                                                                                                                                                                                                                                                                                                                                                                                                                                                                                                                                                                                                                                                                                                                                                                                                                                                                                                                                                                                                                                                                                                                                                                                                                                                                                                                                                                                                                                                                                                                                                                                                                                                      Total wall time: 0:21:56
