LAMMPS (11 Aug 2017)
Total wall time: 0:00:00
