 # Ce112 O224
  
         336  atoms
           2  atom types
 
      0.000000000000      15.464284870000  xlo xhi
      0.000000000000      13.392463548779  ylo yhi
      0.000000000000     145.205160844274  zlo zhi
      7.732142435000       1.933035601298      -1.116038624763  xy xz yz
 
Masses
 
            1   140.11600000            # Ce
            2   15.99900000             # O
 
Atoms # charge
 
         1    1   4.000000        5.799106799549       1.116038644481     143.626843184116
         2    1   4.000000        7.732142408299       4.464154531676     143.626843184116
         3    1   4.000000        9.665178017049       7.812270418871     143.626843184116
         4    1   4.000000       11.598213625799      11.160386306065     143.626843184116
         5    1   4.000000        9.665178017049       1.116038644481     143.626843184116
         6    1   4.000000       11.598213625799       4.464154531676     143.626843184116
         7    1   4.000000       13.531249234549       7.812270418871     143.626843184116
         8    1   4.000000       15.464284843299      11.160386306065     143.626843184116
         9    1   4.000000       13.531249234549       1.116038644481     143.626843184116
        10    1   4.000000       15.464284843299       4.464154531676     143.626843184116
        11    1   4.000000       17.397320452049       7.812270418871     143.626843184116
        12    1   4.000000       19.330356060799      11.160386306065     143.626843184116
        13    1   4.000000       17.397320452049       1.116038644481     143.626843184116
        14    1   4.000000       19.330356060799       4.464154531676     143.626843184116
        15    1   4.000000       21.263391669549       7.812270418871     143.626843184116
        16    1   4.000000       23.196427278299      11.160386306065     143.626843184116
        17    1   4.000000        3.866071171630       2.232077284613     140.470209315851
        18    1   4.000000        5.799106780380       5.580193171808     140.470209315851
        19    1   4.000000        7.732142389130       8.928309059002     140.470209315851
        20    1   4.000000        9.665177997880      12.276424946197     140.470209315851
        21    1   4.000000        7.732142389130       2.232077284613     140.470209315851
        22    1   4.000000        9.665177997880       5.580193171808     140.470209315851
        23    1   4.000000       11.598213606630       8.928309059002     140.470209315851
        24    1   4.000000       13.531249215380      12.276424946197     140.470209315851
        25    1   4.000000       11.598213606630       2.232077284613     140.470209315851
        26    1   4.000000       13.531249215380       5.580193171808     140.470209315851
        27    1   4.000000       15.464284824130       8.928309059002     140.470209315851
        28    1   4.000000       17.397320432880      12.276424946197     140.470209315851
        29    1   4.000000       15.464284824130       2.232077284613     140.470209315851
        30    1   4.000000       17.397320432880       5.580193171808     140.470209315851
        31    1   4.000000       19.330356041630       8.928309059002     140.470209315851
        32    1   4.000000       21.263391650380      12.276424946197     140.470209315851
        33    1   4.000000        3.866071152462       0.000000037550     137.313575447587
        34    1   4.000000        5.799106761212       3.348115924745     137.313575447587
        35    1   4.000000        7.732142369962       6.696231811939     137.313575447587
        36    1   4.000000        9.665177978712      10.044347699134     137.313575447587
        37    1   4.000000        7.732142369962       0.000000037550     137.313575447587
        38    1   4.000000        9.665177978712       3.348115924745     137.313575447587
        39    1   4.000000       11.598213587462       6.696231811939     137.313575447587
        40    1   4.000000       13.531249196212      10.044347699134     137.313575447587
        41    1   4.000000       11.598213587462       0.000000037550     137.313575447587
        42    1   4.000000       13.531249196212       3.348115924745     137.313575447587
        43    1   4.000000       15.464284804962       6.696231811939     137.313575447587
        44    1   4.000000       17.397320413712      10.044347699134     137.313575447587
        45    1   4.000000       15.464284804962       0.000000037550     137.313575447587
        46    1   4.000000       17.397320413712       3.348115924745     137.313575447587
        47    1   4.000000       19.330356022462       6.696231811939     137.313575447587
        48    1   4.000000       21.263391631212      10.044347699134     137.313575447587
        49    1   4.000000        5.799106896687       1.116038677681     134.156941579322
        50    1   4.000000        7.732142505437       4.464154564876     134.156941579322
        51    1   4.000000        9.665178114187       7.812270452071     134.156941579322
        52    1   4.000000       11.598213722937      11.160386339266     134.156941579322
        53    1   4.000000        9.665178114187       1.116038677681     134.156941579322
        54    1   4.000000       11.598213722937       4.464154564876     134.156941579322
        55    1   4.000000       13.531249331687       7.812270452071     134.156941579322
        56    1   4.000000       15.464284940437      11.160386339266     134.156941579322
        57    1   4.000000       13.531249331687       1.116038677681     134.156941579322
        58    1   4.000000       15.464284940437       4.464154564876     134.156941579322
        59    1   4.000000       17.397320549187       7.812270452071     134.156941579322
        60    1   4.000000       19.330356157937      11.160386339266     134.156941579322
        61    1   4.000000       17.397320549187       1.116038677681     134.156941579322
        62    1   4.000000       19.330356157937       4.464154564876     134.156941579322
        63    1   4.000000       21.263391766687       7.812270452071     134.156941579322
        64    1   4.000000       23.196427375437      11.160386339266     134.156941579322
        65    1   4.000000        3.866071268768       2.232077317813     131.000307711058
        66    1   4.000000        5.799106877518       5.580193205008     131.000307711058
        67    1   4.000000        7.732142486268       8.928309092203     131.000307711058
        68    1   4.000000        9.665178095018      12.276424979398     131.000307711058
        69    1   4.000000        7.732142486268       2.232077317813     131.000307711058
        70    1   4.000000        9.665178095018       5.580193205008     131.000307711058
        71    1   4.000000       11.598213703768       8.928309092203     131.000307711058
        72    1   4.000000       13.531249312518      12.276424979398     131.000307711058
        73    1   4.000000       11.598213703768       2.232077317813     131.000307711058
        74    1   4.000000       13.531249312518       5.580193205008     131.000307711058
        75    1   4.000000       15.464284921268       8.928309092203     131.000307711058
        76    1   4.000000       17.397320530018      12.276424979398     131.000307711058
        77    1   4.000000       15.464284921268       2.232077317813     131.000307711058
        78    1   4.000000       17.397320530018       5.580193205008     131.000307711058
        79    1   4.000000       19.330356138768       8.928309092203     131.000307711058
        80    1   4.000000       21.263391747518      12.276424979398     131.000307711058
        81    1   4.000000        3.866071249600       0.000000070750     127.843673842793
        82    1   4.000000        5.799106858350       3.348115957945     127.843673842793
        83    1   4.000000        7.732142467100       6.696231845140     127.843673842793
        84    1   4.000000        9.665178075850      10.044347732335     127.843673842793
        85    1   4.000000        7.732142467100       0.000000070750     127.843673842793
        86    1   4.000000        9.665178075850       3.348115957945     127.843673842793
        87    1   4.000000       11.598213684600       6.696231845140     127.843673842793
        88    1   4.000000       13.531249293350      10.044347732335     127.843673842793
        89    1   4.000000       11.598213684600       0.000000070750     127.843673842793
        90    1   4.000000       13.531249293350       3.348115957945     127.843673842793
        91    1   4.000000       15.464284902100       6.696231845140     127.843673842793
        92    1   4.000000       17.397320510850      10.044347732335     127.843673842793
        93    1   4.000000       15.464284902100       0.000000070750     127.843673842793
        94    1   4.000000       17.397320510850       3.348115957945     127.843673842793
        95    1   4.000000       19.330356119600       6.696231845140     127.843673842793
        96    1   4.000000       21.263391728350      10.044347732335     127.843673842793
        97    1   4.000000        5.799106761860       1.116038576957     124.687039974528
        98    1   4.000000        7.732142370610       4.464154464152     124.687039974528
        99    1   4.000000        9.665177979360       7.812270351347     124.687039974528
       100    1   4.000000       11.598213588110      11.160386238542     124.687039974528
       101    1   4.000000        9.665177979360       1.116038576957     124.687039974528
       102    1   4.000000       11.598213588110       4.464154464152     124.687039974528
       103    1   4.000000       13.531249196860       7.812270351347     124.687039974528
       104    1   4.000000       15.464284805610      11.160386238542     124.687039974528
       105    1   4.000000       13.531249196860       1.116038576957     124.687039974528
       106    1   4.000000       15.464284805610       4.464154464152     124.687039974528
       107    1   4.000000       17.397320414360       7.812270351347     124.687039974528
       108    1   4.000000       19.330356023110      11.160386238542     124.687039974528
       109    1   4.000000       17.397320414360       1.116038576957     124.687039974528
       110    1   4.000000       19.330356023110       4.464154464152     124.687039974528
       111    1   4.000000       21.263391631860       7.812270351347     124.687039974528
       112    1   4.000000       23.196427240610      11.160386238542     124.687039974528
       113    2  -2.000000        3.866071171428      -0.000000062683     144.416002740221
       114    2  -2.000000        5.799106780178       3.348115824511     144.416002740221
       115    2  -2.000000        7.732142388928       6.696231711706     144.416002740221
       116    2  -2.000000        9.665177997678      10.044347598901     144.416002740221
       117    2  -2.000000        7.732142388928      -0.000000062683     144.416002740221
       118    2  -2.000000        9.665177997678       3.348115824511     144.416002740221
       119    2  -2.000000       11.598213606428       6.696231711706     144.416002740221
       120    2  -2.000000       13.531249215178      10.044347598901     144.416002740221
       121    2  -2.000000       11.598213606428      -0.000000062683     144.416002740221
       122    2  -2.000000       13.531249215178       3.348115824511     144.416002740221
       123    2  -2.000000       15.464284823928       6.696231711706     144.416002740221
       124    2  -2.000000       17.397320432678      10.044347598901     144.416002740221
       125    2  -2.000000       15.464284823928      -0.000000062683     144.416002740221
       126    2  -2.000000       17.397320432678       3.348115824511     144.416002740221
       127    2  -2.000000       19.330356041428       6.696231711706     144.416002740221
       128    2  -2.000000       21.263391650178      10.044347598901     144.416002740221
       129    2  -2.000000        3.866071152179       2.232077206560     142.837685080063
       130    2  -2.000000        5.799106760929       5.580193093755     142.837685080063
       131    2  -2.000000        7.732142369679       8.928308980950     142.837685080063
       132    2  -2.000000        9.665177978429      12.276424868145     142.837685080063
       133    2  -2.000000        7.732142369679       2.232077206560     142.837685080063
       134    2  -2.000000        9.665177978429       5.580193093755     142.837685080063
       135    2  -2.000000       11.598213587179       8.928308980950     142.837685080063
       136    2  -2.000000       13.531249195929      12.276424868145     142.837685080063
       137    2  -2.000000       11.598213587179       2.232077206560     142.837685080063
       138    2  -2.000000       13.531249195929       5.580193093755     142.837685080063
       139    2  -2.000000       15.464284804679       8.928308980950     142.837685080063
       140    2  -2.000000       17.397320413429      12.276424868145     142.837685080063
       141    2  -2.000000       15.464284804679       2.232077206560     142.837685080063
       142    2  -2.000000       17.397320413429       5.580193093755     142.837685080063
       143    2  -2.000000       19.330356022179       8.928308980950     142.837685080063
       144    2  -2.000000       21.263391630929      12.276424868145     142.837685080063
       145    2  -2.000000        5.799106761010       1.116038577448     141.259368871956
       146    2  -2.000000        7.732142369760       4.464154464643     141.259368871956
       147    2  -2.000000        9.665177978510       7.812270351838     141.259368871956
       148    2  -2.000000       11.598213587260      11.160386239033     141.259368871956
       149    2  -2.000000        9.665177978510       1.116038577448     141.259368871956
       150    2  -2.000000       11.598213587260       4.464154464643     141.259368871956
       151    2  -2.000000       13.531249196010       7.812270351838     141.259368871956
       152    2  -2.000000       15.464284804760      11.160386239033     141.259368871956
       153    2  -2.000000       13.531249196010       1.116038577448     141.259368871956
       154    2  -2.000000       15.464284804760       4.464154464643     141.259368871956
       155    2  -2.000000       17.397320413510       7.812270351838     141.259368871956
       156    2  -2.000000       19.330356022260      11.160386239033     141.259368871956
       157    2  -2.000000       17.397320413510       1.116038577448     141.259368871956
       158    2  -2.000000       19.330356022260       4.464154464643     141.259368871956
       159    2  -2.000000       21.263391631010       7.812270351838     141.259368871956
       160    2  -2.000000       23.196427239760      11.160386239033     141.259368871956
       161    2  -2.000000        3.866071133010      -0.000000040503     139.681051211798
       162    2  -2.000000        5.799106741760       3.348115846692     139.681051211798
       163    2  -2.000000        7.732142350510       6.696231733887     139.681051211798
       164    2  -2.000000        9.665177959260      10.044347621082     139.681051211798
       165    2  -2.000000        7.732142350510      -0.000000040503     139.681051211798
       166    2  -2.000000        9.665177959260       3.348115846692     139.681051211798
       167    2  -2.000000       11.598213568010       6.696231733887     139.681051211798
       168    2  -2.000000       13.531249176760      10.044347621082     139.681051211798
       169    2  -2.000000       11.598213568010      -0.000000040503     139.681051211798
       170    2  -2.000000       13.531249176760       3.348115846692     139.681051211798
       171    2  -2.000000       15.464284785510       6.696231733887     139.681051211798
       172    2  -2.000000       17.397320394260      10.044347621082     139.681051211798
       173    2  -2.000000       15.464284785510      -0.000000040503     139.681051211798
       174    2  -2.000000       17.397320394260       3.348115846692     139.681051211798
       175    2  -2.000000       19.330356003010       6.696231733887     139.681051211798
       176    2  -2.000000       21.263391611760      10.044347621082     139.681051211798
       177    2  -2.000000        3.866071133091       2.232077217580     138.102735003692
       178    2  -2.000000        5.799106741841       5.580193104775     138.102735003692
       179    2  -2.000000        7.732142350591       8.928308991970     138.102735003692
       180    2  -2.000000        9.665177959341      12.276424879165     138.102735003692
       181    2  -2.000000        7.732142350591       2.232077217580     138.102735003692
       182    2  -2.000000        9.665177959341       5.580193104775     138.102735003692
       183    2  -2.000000       11.598213568091       8.928308991970     138.102735003692
       184    2  -2.000000       13.531249176841      12.276424879165     138.102735003692
       185    2  -2.000000       11.598213568091       2.232077217580     138.102735003692
       186    2  -2.000000       13.531249176841       5.580193104775     138.102735003692
       187    2  -2.000000       15.464284785591       8.928308991970     138.102735003692
       188    2  -2.000000       17.397320394341      12.276424879165     138.102735003692
       189    2  -2.000000       15.464284785591       2.232077217580     138.102735003692
       190    2  -2.000000       17.397320394341       5.580193104775     138.102735003692
       191    2  -2.000000       19.330356003091       8.928308991970     138.102735003692
       192    2  -2.000000       21.263391611841      12.276424879165     138.102735003692
       193    2  -2.000000        5.799106722592       1.116038599629     136.524417343533
       194    2  -2.000000        7.732142331342       4.464154486824     136.524417343533
       195    2  -2.000000        9.665177940092       7.812270374019     136.524417343533
       196    2  -2.000000       11.598213548842      11.160386261213     136.524417343533
       197    2  -2.000000        9.665177940092       1.116038599629     136.524417343533
       198    2  -2.000000       11.598213548842       4.464154486824     136.524417343533
       199    2  -2.000000       13.531249157592       7.812270374019     136.524417343533
       200    2  -2.000000       15.464284766342      11.160386261213     136.524417343533
       201    2  -2.000000       13.531249157592       1.116038599629     136.524417343533
       202    2  -2.000000       15.464284766342       4.464154486824     136.524417343533
       203    2  -2.000000       17.397320375092       7.812270374019     136.524417343533
       204    2  -2.000000       19.330355983842      11.160386261213     136.524417343533
       205    2  -2.000000       17.397320375092       1.116038599629     136.524417343533
       206    2  -2.000000       19.330355983842       4.464154486824     136.524417343533
       207    2  -2.000000       21.263391592592       7.812270374019     136.524417343533
       208    2  -2.000000       23.196427201342      11.160386261213     136.524417343533
       209    2  -2.000000        3.866071268566      -0.000000029483     134.946101135427
       210    2  -2.000000        5.799106877316       3.348115857712     134.946101135427
       211    2  -2.000000        7.732142486066       6.696231744907     134.946101135427
       212    2  -2.000000        9.665178094816      10.044347632102     134.946101135427
       213    2  -2.000000        7.732142486066      -0.000000029483     134.946101135427
       214    2  -2.000000        9.665178094816       3.348115857712     134.946101135427
       215    2  -2.000000       11.598213703566       6.696231744907     134.946101135427
       216    2  -2.000000       13.531249312316      10.044347632102     134.946101135427
       217    2  -2.000000       11.598213703566      -0.000000029483     134.946101135427
       218    2  -2.000000       13.531249312316       3.348115857712     134.946101135427
       219    2  -2.000000       15.464284921066       6.696231744907     134.946101135427
       220    2  -2.000000       17.397320529816      10.044347632102     134.946101135427
       221    2  -2.000000       15.464284921066      -0.000000029483     134.946101135427
       222    2  -2.000000       17.397320529816       3.348115857712     134.946101135427
       223    2  -2.000000       19.330356138566       6.696231744907     134.946101135427
       224    2  -2.000000       21.263391747316      10.044347632102     134.946101135427
       225    2  -2.000000        3.866071249316       2.232077239761     133.367783475269
       226    2  -2.000000        5.799106858066       5.580193126956     133.367783475269
       227    2  -2.000000        7.732142466816       8.928309014150     133.367783475269
       228    2  -2.000000        9.665178075566      12.276424901345     133.367783475269
       229    2  -2.000000        7.732142466816       2.232077239761     133.367783475269
       230    2  -2.000000        9.665178075566       5.580193126956     133.367783475269
       231    2  -2.000000       11.598213684316       8.928309014150     133.367783475269
       232    2  -2.000000       13.531249293066      12.276424901345     133.367783475269
       233    2  -2.000000       11.598213684316       2.232077239761     133.367783475269
       234    2  -2.000000       13.531249293066       5.580193126956     133.367783475269
       235    2  -2.000000       15.464284901816       8.928309014150     133.367783475269
       236    2  -2.000000       17.397320510566      12.276424901345     133.367783475269
       237    2  -2.000000       15.464284901816       2.232077239761     133.367783475269
       238    2  -2.000000       17.397320510566       5.580193126956     133.367783475269
       239    2  -2.000000       19.330356119316       8.928309014150     133.367783475269
       240    2  -2.000000       21.263391728066      12.276424901345     133.367783475269
       241    2  -2.000000        5.799106858147       1.116038610649     131.789467267162
       242    2  -2.000000        7.732142466897       4.464154497844     131.789467267162
       243    2  -2.000000        9.665178075647       7.812270385039     131.789467267162
       244    2  -2.000000       11.598213684397      11.160386272234     131.789467267162
       245    2  -2.000000        9.665178075647       1.116038610649     131.789467267162
       246    2  -2.000000       11.598213684397       4.464154497844     131.789467267162
       247    2  -2.000000       13.531249293147       7.812270385039     131.789467267162
       248    2  -2.000000       15.464284901897      11.160386272234     131.789467267162
       249    2  -2.000000       13.531249293147       1.116038610649     131.789467267162
       250    2  -2.000000       15.464284901897       4.464154497844     131.789467267162
       251    2  -2.000000       17.397320510647       7.812270385039     131.789467267162
       252    2  -2.000000       19.330356119397      11.160386272234     131.789467267162
       253    2  -2.000000       17.397320510647       1.116038610649     131.789467267162
       254    2  -2.000000       19.330356119397       4.464154497844     131.789467267162
       255    2  -2.000000       21.263391728147       7.812270385039     131.789467267162
       256    2  -2.000000       23.196427336897      11.160386272234     131.789467267162
       257    2  -2.000000        3.866071230148      -0.000000007302     130.211149607004
       258    2  -2.000000        5.799106838898       3.348115879893     130.211149607004
       259    2  -2.000000        7.732142447648       6.696231767087     130.211149607004
       260    2  -2.000000        9.665178056398      10.044347654282     130.211149607004
       261    2  -2.000000        7.732142447648      -0.000000007302     130.211149607004
       262    2  -2.000000        9.665178056398       3.348115879893     130.211149607004
       263    2  -2.000000       11.598213665148       6.696231767087     130.211149607004
       264    2  -2.000000       13.531249273898      10.044347654282     130.211149607004
       265    2  -2.000000       11.598213665148      -0.000000007302     130.211149607004
       266    2  -2.000000       13.531249273898       3.348115879893     130.211149607004
       267    2  -2.000000       15.464284882648       6.696231767087     130.211149607004
       268    2  -2.000000       17.397320491398      10.044347654282     130.211149607004
       269    2  -2.000000       15.464284882648      -0.000000007302     130.211149607004
       270    2  -2.000000       17.397320491398       3.348115879893     130.211149607004
       271    2  -2.000000       19.330356100148       6.696231767087     130.211149607004
       272    2  -2.000000       21.263391708898      10.044347654282     130.211149607004
       273    2  -2.000000        3.866071230229       2.232077250781     128.632833398898
       274    2  -2.000000        5.799106838979       5.580193137976     128.632833398898
       275    2  -2.000000        7.732142447729       8.928309025170     128.632833398898
       276    2  -2.000000        9.665178056479      12.276424912365     128.632833398898
       277    2  -2.000000        7.732142447729       2.232077250781     128.632833398898
       278    2  -2.000000        9.665178056479       5.580193137976     128.632833398898
       279    2  -2.000000       11.598213665229       8.928309025170     128.632833398898
       280    2  -2.000000       13.531249273979      12.276424912365     128.632833398898
       281    2  -2.000000       11.598213665229       2.232077250781     128.632833398898
       282    2  -2.000000       13.531249273979       5.580193137976     128.632833398898
       283    2  -2.000000       15.464284882729       8.928309025170     128.632833398898
       284    2  -2.000000       17.397320491479      12.276424912365     128.632833398898
       285    2  -2.000000       15.464284882729       2.232077250781     128.632833398898
       286    2  -2.000000       17.397320491479       5.580193137976     128.632833398898
       287    2  -2.000000       19.330356100229       8.928309025170     128.632833398898
       288    2  -2.000000       21.263391708979      12.276424912365     128.632833398898
       289    2  -2.000000        5.799106819730       1.116038632830     127.054515738740
       290    2  -2.000000        7.732142428480       4.464154520024     127.054515738740
       291    2  -2.000000        9.665178037230       7.812270407219     127.054515738740
       292    2  -2.000000       11.598213645980      11.160386294414     127.054515738740
       293    2  -2.000000        9.665178037230       1.116038632830     127.054515738740
       294    2  -2.000000       11.598213645980       4.464154520024     127.054515738740
       295    2  -2.000000       13.531249254730       7.812270407219     127.054515738740
       296    2  -2.000000       15.464284863480      11.160386294414     127.054515738740
       297    2  -2.000000       13.531249254730       1.116038632830     127.054515738740
       298    2  -2.000000       15.464284863480       4.464154520024     127.054515738740
       299    2  -2.000000       17.397320472230       7.812270407219     127.054515738740
       300    2  -2.000000       19.330356080980      11.160386294414     127.054515738740
       301    2  -2.000000       17.397320472230       1.116038632830     127.054515738740
       302    2  -2.000000       19.330356080980       4.464154520024     127.054515738740
       303    2  -2.000000       21.263391689730       7.812270407219     127.054515738740
       304    2  -2.000000       23.196427298480      11.160386294414     127.054515738740
       305    2  -2.000000        3.866071191730       0.000000014878     125.476198078582
       306    2  -2.000000        5.799106800480       3.348115902073     125.476198078582
       307    2  -2.000000        7.732142409230       6.696231789268     125.476198078582
       308    2  -2.000000        9.665178017980      10.044347676463     125.476198078582
       309    2  -2.000000        7.732142409230       0.000000014878     125.476198078582
       310    2  -2.000000        9.665178017980       3.348115902073     125.476198078582
       311    2  -2.000000       11.598213626730       6.696231789268     125.476198078582
       312    2  -2.000000       13.531249235480      10.044347676463     125.476198078582
       313    2  -2.000000       11.598213626730       0.000000014878     125.476198078582
       314    2  -2.000000       13.531249235480       3.348115902073     125.476198078582
       315    2  -2.000000       15.464284844230       6.696231789268     125.476198078582
       316    2  -2.000000       17.397320452980      10.044347676463     125.476198078582
       317    2  -2.000000       15.464284844230       0.000000014878     125.476198078582
       318    2  -2.000000       17.397320452980       3.348115902073     125.476198078582
       319    2  -2.000000       19.330356061730       6.696231789268     125.476198078582
       320    2  -2.000000       21.263391670480      10.044347676463     125.476198078582
       321    2  -2.000000        3.866071191811       2.232077272961     123.897881870475
       322    2  -2.000000        5.799106800561       5.580193160156     123.897881870475
       323    2  -2.000000        7.732142409311       8.928309047351     123.897881870475
       324    2  -2.000000        9.665178018061      12.276424934546     123.897881870475
       325    2  -2.000000        7.732142409311       2.232077272961     123.897881870475