 # "Ce28 O56"
  
          84  atoms
           2  atom types
 
      0.000000000000       7.732140000000  xlo xhi
      0.000000000000       6.696229665618  ylo yhi
      0.000000000000     101.307000000000  zlo zhi
      3.866070000000       0.000000000000       0.000000000000  xy xz yz
 
Masses
 
            1   140.11600000            # Ce
            2   15.99900000             # O
 
Atoms # atomic
 
         1    1        7.732140000000       0.000000000000      40.000055880000
         2    1        5.799105000000       3.348114832809      40.000055880000
         3    1        3.866070000000       0.000000000000      40.000055880000
         4    1        9.665175000000       3.348114832809      40.000055880000
         5    2        7.732140000000       0.000000000000      42.367600470000
         6    2        7.732178660700       4.464175431177      40.789237410000
         7    2        5.799143660700       1.116060598369      40.789237410000
         8    2        9.665175000000       3.348114832809      42.367600470000
         9    2        5.799105000000       3.348114832809      42.367600470000
        10    2        1.933073660700       1.116060598369      40.789237410000
        11    2        3.866108660700       4.464175431177      40.789237410000
        12    2        3.866070000000       0.000000000000      42.367600470000
        13    1        7.732178660700       4.464175431177      43.156782000000
        14    1        1.933073660700       1.116060598369      43.156782000000
        15    1        3.866108660700       4.464175431177      43.156782000000
        16    1        5.799143660700       1.116060598369      43.156782000000
        17    2        7.732178660700       4.464175431177      45.524326590000
        18    2        3.866031339300       2.232054234440      43.945963530000
        19    2        5.799066339300       5.580169067249      43.945963530000
        20    2        5.799143660700       1.116060598369      45.524326590000
        21    2        1.933073660700       1.116060598369      45.524326590000
        22    2        9.665136339300       5.580169067249      43.945963530000
        23    2        7.732101339300       2.232054234440      43.945963530000
        24    2        3.866108660700       4.464175431177      45.524326590000
        25    1        3.866031339300       2.232054234440      46.313508120000
        26    1        9.665136339300       5.580169067249      46.313508120000
        27    1        7.732101339300       2.232054234440      46.313508120000
        28    1        5.799066339300       5.580169067249      46.313508120000
        29    2        3.866031339300       2.232054234440      48.681052710000
        30    2        7.732140000000       0.000000000000      47.102689650000
        31    2        9.665175000000       3.348114832809      47.102689650000
        32    2        5.799066339300       5.580169067249      48.681052710000
        33    2        9.665136339300       5.580169067249      48.681052710000
        34    2        5.799105000000       3.348114832809      47.102689650000
        35    2        3.866070000000       0.000000000000      47.102689650000
        36    2        7.732101339300       2.232054234440      48.681052710000
        37    1        7.732140000000       0.000000000000      49.470234240000
        38    1        5.799105000000       3.348114832809      49.470234240000
        39    1        3.866070000000       0.000000000000      49.470234240000
        40    1        9.665175000000       3.348114832809      49.470234240000
        41    2        0.000000000000       0.000000000000      51.836765760000
        42    2        7.732178660700       4.464175431177      50.259415770000
        43    2        5.799143660700       1.116060598369      50.259415770000
        44    2        9.665175000000       3.348114832809      51.836765760000
        45    2        5.799105000000       3.348114832809      51.836765760000
        46    2        1.933073660700       1.116060598369      50.259415770000
        47    2        3.866108660700       4.464175431177      50.259415770000
        48    2        3.866070000000       0.000000000000      51.836765760000
        49    1        7.732178660700       4.464175431177      52.625947290000
        50    1        1.933073660700       1.116060598369      52.625947290000
        51    1        3.866108660700       4.464175431177      52.625947290000
        52    1        5.799143660700       1.116060598369      52.625947290000
        53    2        7.732178660700       4.464175431177      54.993491880000
        54    2        3.866031339300       2.232054234440      53.415128820000
        55    2        5.799066339300       5.580169067249      53.415128820000
        56    2        5.799143660700       1.116060598369      54.993491880000
        57    2        1.933073660700       1.116060598369      54.993491880000
        58    2        9.665136339300       5.580169067249      53.415128820000
        59    2        7.732101339300       2.232054234440      53.415128820000
        60    2        3.866108660700       4.464175431177      54.993491880000
        61    1        3.866031339300       2.232054234440      55.782673410000
        62    1        9.665136339300       5.580169067249      55.782673410000
        63    1        7.732101339300       2.232054234440      55.782673410000
        64    1        5.799066339300       5.580169067249      55.782673410000
        65    2        3.866031339300       2.232054234440      58.150218000000
        66    2        7.732140000000       0.000000000000      56.571854940000
        67    2        1.933035000000       3.348114832809      56.571854940000
        68    2        5.799066339300       5.580169067249      58.150218000000
        69    2        9.665136339300       5.580169067249      58.150218000000
        70    2        5.799105000000       3.348114832809      56.571854940000
        71    2        3.866070000000       0.000000000000      56.571854940000
        72    2        7.732101339300       2.232054234440      58.150218000000
        73    1        7.732140000000       0.000000000000      58.939399530000
        74    1        5.799105000000       3.348114832809      58.939399530000
        75    1        3.866070000000       0.000000000000      58.939399530000
        76    1        1.933035000000       3.348114832809      58.939399530000
        77    2        7.732140000000       0.000000000000      61.306944120000
        78    2        7.732178660700       4.464175431177      59.728581060000
        79    2        5.799143660700       1.116060598369      59.728581060000
        80    2        9.665175000000       3.348114832809      61.306944120000
        81    2        5.799105000000       3.348114832809      61.306944120000
        82    2        1.933073660700       1.116060598369      59.728581060000
        83    2        3.866108660700       4.464175431177      59.728581060000
        84    2        3.866070000000       0.000000000000      61.306944120000
