 # "Ce28 O56"
  
          84  atoms
           2  atom types
 
      0.000000000000       7.732140000000  xlo xhi
      0.000000000000       6.696229665618  ylo yhi
      0.000000000000      51.307300000000  zlo zhi
      3.866070000000       0.000000000000       0.000000000000  xy xz yz
 
Masses
 
            1   140.11600000            # Ce
            2   15.99900000             # O
 
Atoms # atomic
 
         1    1        7.732140000000       0.000000000000      15.000202228000
         2    1        5.799105000000       3.348114832809      15.000202228000
         3    1        3.866070000000       0.000000000000      15.000202228000
         4    1        9.665175000000       3.348114832809      15.000202228000
         5    2        7.732140000000       0.000000000000      17.367521050000
         6    2        7.732178660700       4.464175431177      15.789308502000
         7    2        5.799143660700       1.116060598369      15.789308502000
         8    2        9.665175000000       3.348114832809      17.367521050000
         9    2        5.799105000000       3.348114832809      17.367521050000
        10    2        1.933073660700       1.116060598369      15.789308502000
        11    2        3.866108660700       4.464175431177      15.789308502000
        12    2        3.866070000000       0.000000000000      17.367521050000
        13    1        7.732178660700       4.464175431177      18.156627324000
        14    1        1.933073660700       1.116060598369      18.156627324000
        15    1        3.866108660700       4.464175431177      18.156627324000
        16    1        5.799143660700       1.116060598369      18.156627324000
        17    2        7.732178660700       4.464175431177      20.523946146000
        18    2        3.866031339300       2.232054234440      18.945733598000
        19    2        5.799066339300       5.580169067249      18.945733598000
        20    2        5.799143660700       1.116060598369      20.523946146000
        21    2        1.933073660700       1.116060598369      20.523946146000
        22    2        9.665136339300       5.580169067249      18.945733598000
        23    2        7.732101339300       2.232054234440      18.945733598000
        24    2        3.866108660700       4.464175431177      20.523946146000
        25    1        3.866031339300       2.232054234440      21.313052420000
        26    1        9.665136339300       5.580169067249      21.313052420000
        27    1        7.732101339300       2.232054234440      21.313052420000
        28    1        5.799066339300       5.580169067249      21.313052420000
        29    2        3.866031339300       2.232054234440      23.680884315000
        30    2        0.000000000000       0.000000000000      22.102671767000
        31    2        9.665175000000       3.348114832809      22.102671767000
        32    2        5.799066339300       5.580169067249      23.680884315000
        33    2        9.665136339300       5.580169067249      23.680884315000
        34    2        5.799105000000       3.348114832809      22.102671767000
        35    2        3.866070000000       0.000000000000      22.102671767000
        36    2        7.732101339300       2.232054234440      23.680884315000
        37    1       11.598210000000       6.696229665618      24.469990589000
        38    1        5.799105000000       3.348114832809      24.469990589000
        39    1        7.732140000000       6.696229665618      24.469990589000
        40    1        9.665175000000       3.348114832809      24.469990589000
        41    2        7.732140000000       0.000000000000      26.837309411000
        42    2        7.732178660700       4.464175431177      25.259096863000
        43    2        5.799143660700       1.116060598369      25.259096863000
        44    2        1.933035000000       3.348114832809      26.837309411000
        45    2        5.799105000000       3.348114832809      26.837309411000
        46    2        1.933073660700       1.116060598369      25.259096863000
        47    2        3.866108660700       4.464175431177      25.259096863000
        48    2        3.866070000000       0.000000000000      26.837309411000
        49    1        7.732178660700       4.464175431177      27.626415685000
        50    1        1.933073660700       1.116060598369      27.626415685000
        51    1        3.866108660700       4.464175431177      27.626415685000
        52    1        5.799143660700       1.116060598369      27.626415685000
        53    2        7.732178660700       4.464175431177      29.994247580000
        54    2        3.866031339300       2.232054234440      28.415521959000
        55    2        5.799066339300       5.580169067249      28.415521959000
        56    2        5.799143660700       1.116060598369      29.994247580000
        57    2        1.933073660700       1.116060598369      29.994247580000
        58    2        9.665136339300       5.580169067249      28.415521959000
        59    2        7.732101339300       2.232054234440      28.415521959000
        60    2        3.866108660700       4.464175431177      29.994247580000
        61    1        3.866031339300       2.232054234440      30.783353854000
        62    1        9.665136339300       5.580169067249      30.783353854000
        63    1        7.732101339300       2.232054234440      30.783353854000
        64    1        5.799066339300       5.580169067249      30.783353854000
        65    2        3.866031339300       2.232054234440      33.150672676000
        66    2        7.732140000000       0.000000000000      31.572460128000
        67    2        9.665175000000       3.348114832809      31.572460128000
        68    2        5.799066339300       5.580169067249      33.150672676000
        69    2        9.665136339300       5.580169067249      33.150672676000
        70    2        5.799105000000       3.348114832809      31.572460128000
        71    2        3.866070000000       0.000000000000      31.572460128000
        72    2        7.732101339300       2.232054234440      33.150672676000
        73    1        7.732140000000       0.000000000000      33.939778950000
        74    1        5.799105000000       3.348114832809      33.939778950000
        75    1        3.866070000000       0.000000000000      33.939778950000
        76    1        9.665175000000       3.348114832809      33.939778950000
        77    2        0.000000000000       0.000000000000      36.307097772000
        78    2        7.732178660700       4.464175431177      34.728885224000
        79    2        5.799143660700       1.116060598369      34.728885224000
        80    2        9.665175000000       3.348114832809      36.307097772000
        81    2        5.799105000000       3.348114832809      36.307097772000
        82    2        1.933073660700       1.116060598369      34.728885224000
        83    2        3.866108660700       4.464175431177      34.728885224000
        84    2        3.866070000000       0.000000000000      36.307097772000
