 # O16
  
           2  atoms
           1  atom types
 
      0.000000000000       6.363300380000  xlo xhi
      0.000000000000       7.991324560000  ylo yhi
      0.000000000000       3.287919808396  zlo zhi
      0.000000000000      -1.145594909687       0.000000000000  xy xz yz
 
Masses
 
            1   15.99900000             # O
 
Atoms
 
         1    1   -2.0        -0.317342790742       1.327832335570       2.141699573002
         2    1   -2.0        1.320288478703       3.801610304235       0.646880171622
