ITEM: TIMESTEP
0
ITEM: NUMBER OF ATOMS
13
ITEM: BOX BOUNDS pp pp pp
0.0000000000000000e+00 1.0000000000000000e+01
0.0000000000000000e+00 1.0000000000000000e+01
0.0000000000000000e+00 1.0000000000000000e+01
ITEM: ATOMS id type xs ys zs
1 1 0.249773 0.932229 0.965988
2 1 0.362287 0.952459 0.979877
3 1 0.793016 0.22457 0.351045
4 1 0.0193893 0.876797 0.330957
5 1 0.398812 0.83322 0.921979
6 1 0.696636 0.360814 0.20789
7 1 0.00740707 0.490675 0.771669
8 1 0.438657 0.511649 0.290069
9 1 0.186552 0.38685 0.781667
10 1 0.471596 0.1084 0.873734
11 1 0.842612 0.78358 0.627009
12 1 0.133227 0.144899 0.315983
13 1 0.722444 0.120997 0.596361
ITEM: TIMESTEP
10
ITEM: NUMBER OF ATOMS
13
ITEM: BOX BOUNDS pp pp pp
0.0000000000000000e+00 1.0000000000000000e+01
0.0000000000000000e+00 1.0000000000000000e+01
0.0000000000000000e+00 1.0000000000000000e+01
ITEM: ATOMS id type xs ys zs
1 1 0.274027 0.912062 0.956382
2 1 0.374906 0.957321 0.977161
3 1 0.790004 0.228114 0.347842
4 1 0.0196209 0.877637 0.33105
5 1 0.365921 0.85498 0.930955
6 1 0.699091 0.356911 0.212394
7 1 0.0164004 0.485544 0.772103
8 1 0.439131 0.511349 0.289902
9 1 0.177541 0.392035 0.781184
10 1 0.467584 0.102053 0.877089
11 1 0.842728 0.7837 0.62689
12 1 0.132681 0.14412 0.315987
13 1 0.722774 0.121312 0.595288
ITEM: TIMESTEP
20
ITEM: NUMBER OF ATOMS
13
ITEM: BOX BOUNDS pp pp pp
0.0000000000000000e+00 1.0000000000000000e+01
0.0000000000000000e+00 1.0000000000000000e+01
0.0000000000000000e+00 1.0000000000000000e+01
ITEM: ATOMS id type xs ys zs
1 1 0.278898 0.921085 0.958701
2 1 0.380605 0.968647 0.956842
3 1 0.781379 0.239325 0.336787
4 1 0.0200137 0.879027 0.331205
5 1 0.373114 0.862398 0.932086
6 1 0.706927 0.345161 0.225345
7 1 0.0493855 0.466492 0.773887
8 1 0.439836 0.510889 0.289676
9 1 0.144529 0.411164 0.779336
10 1 0.449776 0.0744222 0.893974
11 1 0.842894 0.783934 0.626674
12 1 0.131809 0.142825 0.316012
13 1 0.723244 0.12177 0.593703
ITEM: TIMESTEP
30
ITEM: NUMBER OF ATOMS
13
ITEM: BOX BOUNDS pp pp pp
0.0000000000000000e+00 1.0000000000000000e+01
0.0000000000000000e+00 1.0000000000000000e+01
0.0000000000000000e+00 1.0000000000000000e+01
ITEM: ATOMS id type xs ys zs
1 1 0.284935 0.926071 0.958584
2 1 0.381645 0.976625 0.950452
3 1 0.768751 0.257002 0.318376
4 1 0.0201891 0.879615 0.331265
5 1 0.375397 0.864585 0.93129
6 1 0.719335 0.327316 0.24432
7 1 0.0492484 0.466592 0.773859
8 1 0.440067 0.510727 0.289618
9 1 0.144654 0.411082 0.779346
10 1 0.440391 0.0593149 0.901304
11 1 0.842949 0.78405 0.626575
12 1 0.131467 0.142267 0.316017
13 1 0.723381 0.12189 0.59322
ITEM: TIMESTEP
40
ITEM: NUMBER OF ATOMS
13
ITEM: BOX BOUNDS pp pp pp
0.0000000000000000e+00 1.0000000000000000e+01
0.0000000000000000e+00 1.0000000000000000e+01
0.0000000000000000e+00 1.0000000000000000e+01
ITEM: ATOMS id type xs ys zs
1 1 0.283761 0.925186 0.958198
2 1 0.383223 0.976511 0.951607
3 1 0.768429 0.257399 0.318005
4 1 0.0202547 0.879827 0.331286
5 1 0.375459 0.86662 0.931048
6 1 0.719606 0.326876 0.244831
7 1 0.048352 0.467121 0.7738
8 1 0.440133 0.510677 0.289606
9 1 0.145546 0.41056 0.779398
10 1 0.439914 0.058296 0.900789
11 1 0.842969 0.784091 0.62654
12 1 0.13135 0.142063 0.316017
13 1 0.723412 0.121911 0.593101
ITEM: TIMESTEP
50
ITEM: NUMBER OF ATOMS
13
ITEM: BOX BOUNDS pp pp pp
0.0000000000000000e+00 1.0000000000000000e+01
0.0000000000000000e+00 1.0000000000000000e+01
0.0000000000000000e+00 1.0000000000000000e+01
ITEM: ATOMS id type xs ys zs
1 1 0.291738 0.936315 0.944692
2 1 0.382846 0.979674 0.99356
3 1 0.767633 0.256837 0.319861
4 1 0.0220766 0.885683 0.331842
5 1 0.391436 0.90316 0.912501
6 1 0.719025 0.326253 0.246768
7 1 0.0489435 0.466977 0.773638
8 1 0.44191 0.50934 0.289287
9 1 0.144826 0.410877 0.779383
10 1 0.416062 0.00789757 0.891206
11 1 0.843493 0.785195 0.625601
12 1 0.12815 0.136433 0.316034
13 1 0.724269 0.122498 0.589852
ITEM: TIMESTEP
60
ITEM: NUMBER OF ATOMS
13
ITEM: BOX BOUNDS pp pp pp
0.0000000000000000e+00 1.0000000000000000e+01
0.0000000000000000e+00 1.0000000000000000e+01
0.0000000000000000e+00 1.0000000000000000e+01
ITEM: ATOMS id type xs ys zs
1 1 0.301899 0.952888 0.931745
2 1 0.389052 0.972637 0.999762
3 1 0.76762 0.256664 0.320181
4 1 0.0223357 0.886454 0.331882
5 1 0.397997 0.896123 0.917992
6 1 0.718893 0.326293 0.24686
7 1 0.0484835 0.467261 0.773591
8 1 0.442094 0.509203 0.289259
9 1 0.145269 0.410605 0.77941
10 1 0.3931 0.00544604 0.892501
11 1 0.843541 0.785305 0.625511
12 1 0.127759 0.135685 0.316047
13 1 0.724366 0.122574 0.589486
ITEM: TIMESTEP
70
ITEM: NUMBER OF ATOMS
13
ITEM: BOX BOUNDS pp pp pp
0.0000000000000000e+00 1.0000000000000000e+01
0.0000000000000000e+00 1.0000000000000000e+01
0.0000000000000000e+00 1.0000000000000000e+01
ITEM: ATOMS id type xs ys zs
1 1 0.302125 0.953219 0.931983
2 1 0.388664 0.972901 0.999682
3 1 0.765147 0.254624 0.326264
4 1 0.0301034 0.909414 0.332981
5 1 0.397474 0.896885 0.918451
6 1 0.717213 0.324475 0.252608
7 1 0.0484711 0.467703 0.773016
8 1 0.447346 0.505299 0.288461
9 1 0.144798 0.410449 0.779414
10 1 0.392721 0.00546482 0.89303
11 1 0.844915 0.788418 0.622956
12 1 0.116194 0.113409 0.316556
13 1 0.727237 0.124878 0.578824
ITEM: TIMESTEP
80
ITEM: NUMBER OF ATOMS
13
ITEM: BOX BOUNDS pp pp pp
0.0000000000000000e+00 1.0000000000000000e+01
0.0000000000000000e+00 1.0000000000000000e+01
0.0000000000000000e+00 1.0000000000000000e+01
ITEM: ATOMS id type xs ys zs
1 1 0.301769 0.953978 0.932545
2 1 0.387974 0.973426 0.000106457
3 1 0.760832 0.251078 0.33684
4 1 0.04715 0.957748 0.333682
5 1 0.397117 0.89763 0.919006
6 1 0.714328 0.32129 0.262596
7 1 0.0484083 0.468489 0.772021
8 1 0.456436 0.498542 0.287083
9 1 0.144027 0.410153 0.779422
10 1 0.392282 0.00581135 0.893474
11 1 0.847284 0.793798 0.618548
12 1 0.0925858 0.0662645 0.318628
13 1 0.732216 0.128931 0.560274
ITEM: TIMESTEP
90
ITEM: NUMBER OF ATOMS
13
ITEM: BOX BOUNDS pp pp pp
0.0000000000000000e+00 1.0000000000000000e+01
0.0000000000000000e+00 1.0000000000000000e+01
0.0000000000000000e+00 1.0000000000000000e+01
ITEM: ATOMS id type xs ys zs
1 1 0.301269 0.953832 0.932411
2 1 0.388231 0.973625 0.000556039
3 1 0.760773 0.251025 0.336972
4 1 0.0483555 0.960665 0.333286
5 1 0.397182 0.897117 0.918921
6 1 0.71433 0.321239 0.262688
7 1 0.0484109 0.468489 0.772018
8 1 0.456489 0.498504 0.287079
9 1 0.144022 0.410153 0.779422
10 1 0.392449 0.00628 0.893253
11 1 0.847289 0.793819 0.618537
12 1 0.0913528 0.0633594 0.319029
13 1 0.732255 0.129031 0.560054
ITEM: TIMESTEP
100
ITEM: NUMBER OF ATOMS
13
ITEM: BOX BOUNDS pp pp pp
0.0000000000000000e+00 1.0000000000000000e+01
0.0000000000000000e+00 1.0000000000000000e+01
0.0000000000000000e+00 1.0000000000000000e+01
ITEM: ATOMS id type xs ys zs
1 1 0.300966 0.954129 0.932806
2 1 0.387794 0.973789 0.000909401
3 1 0.752862 0.243589 0.355306
4 1 0.0463919 0.960318 0.334292
5 1 0.39697 0.897416 0.919165
6 1 0.715333 0.313804 0.275173
7 1 0.0484223 0.468745 0.771626
8 1 0.462599 0.494077 0.286665
9 1 0.143732 0.410007 0.779432
10 1 0.392175 0.00638754 0.893447
11 1 0.847884 0.796201 0.617287
12 1 0.0901543 0.0650636 0.318584
13 1 0.737124 0.143612 0.529534
ITEM: TIMESTEP
110
ITEM: NUMBER OF ATOMS
13
ITEM: BOX BOUNDS pp pp pp
0.0000000000000000e+00 1.0000000000000000e+01
0.0000000000000000e+00 1.0000000000000000e+01
0.0000000000000000e+00 1.0000000000000000e+01
ITEM: ATOMS id type xs ys zs
1 1 0.300479 0.954014 0.932653
2 1 0.388052 0.974009 0.00129349
3 1 0.747128 0.237057 0.370692
4 1 0.0458974 0.960019 0.334538
5 1 0.396928 0.89694 0.919217
6 1 0.718461 0.305971 0.285242
7 1 0.0484168 0.468792 0.771554
8 1 0.46373 0.493222 0.286653
9 1 0.143692 0.409975 0.779432
10 1 0.392216 0.00690379 0.893386
11 1 0.848032 0.796534 0.617048
12 1 0.0900206 0.0656198 0.318495
13 1 0.739356 0.158083 0.504025
ITEM: TIMESTEP
120
ITEM: NUMBER OF ATOMS
13
ITEM: BOX BOUNDS pp pp pp
0.0000000000000000e+00 1.0000000000000000e+01
0.0000000000000000e+00 1.0000000000000000e+01
0.0000000000000000e+00 1.0000000000000000e+01
ITEM: ATOMS id type xs ys zs
1 1 0.301705 0.954131 0.932791
2 1 0.387643 0.973714 0.000147849
3 1 0.742964 0.231412 0.38334
4 1 0.0464557 0.961697 0.334358
5 1 0.396449 0.898092 0.919527
6 1 0.721083 0.299381 0.293593
7 1 0.0484155 0.468809 0.771527
8 1 0.464124 0.492917 0.28666
9 1 0.143677 0.409963 0.779432
10 1 0.391791 0.00598204 0.894165
11 1 0.848093 0.796638 0.616961
12 1 0.0892206 0.0640404 0.318739
13 1 0.740789 0.170362 0.482987
ITEM: TIMESTEP
130
ITEM: NUMBER OF ATOMS
13
ITEM: BOX BOUNDS pp pp pp
0.0000000000000000e+00 1.0000000000000000e+01
0.0000000000000000e+00 1.0000000000000000e+01
0.0000000000000000e+00 1.0000000000000000e+01
ITEM: ATOMS id type xs ys zs
1 1 0.301705 0.954131 0.932791
2 1 0.387643 0.973714 0.000147862
3 1 0.742964 0.231412 0.38334
4 1 0.0464557 0.961697 0.334358
5 1 0.396449 0.898092 0.919527
6 1 0.721083 0.299381 0.293593
7 1 0.0484155 0.468809 0.771527
8 1 0.464124 0.492917 0.28666
9 1 0.143677 0.409963 0.779432
10 1 0.391791 0.00598205 0.894165
11 1 0.848093 0.796638 0.616961
12 1 0.0892206 0.0640405 0.318739
13 1 0.740789 0.170362 0.482987
ITEM: TIMESTEP
140
ITEM: NUMBER OF ATOMS
13
ITEM: BOX BOUNDS pp pp pp
0.0000000000000000e+00 1.0000000000000000e+01
0.0000000000000000e+00 1.0000000000000000e+01
0.0000000000000000e+00 1.0000000000000000e+01
ITEM: ATOMS id type xs ys zs
1 1 0.301705 0.954131 0.932791
2 1 0.387643 0.973714 0.000147862
3 1 0.742964 0.231412 0.38334
4 1 0.0464557 0.961697 0.334358
5 1 0.396449 0.898092 0.919527
6 1 0.721083 0.299381 0.293593
7 1 0.0484155 0.468809 0.771527
8 1 0.464124 0.492917 0.28666
9 1 0.143677 0.409963 0.779432
10 1 0.391791 0.00598205 0.894165
11 1 0.848093 0.796638 0.616961
12 1 0.0892206 0.0640405 0.318739
13 1 0.740789 0.170362 0.482987
ITEM: TIMESTEP
150
ITEM: NUMBER OF ATOMS
13
ITEM: BOX BOUNDS pp pp pp
0.0000000000000000e+00 1.0000000000000000e+01
0.0000000000000000e+00 1.0000000000000000e+01
0.0000000000000000e+00 1.0000000000000000e+01
ITEM: ATOMS id type xs ys zs
1 1 0.300878 0.954101 0.932774
2 1 0.387833 0.973898 0.000936224
3 1 0.742407 0.23121 0.384146
4 1 0.0463965 0.961597 0.334382
5 1 0.396797 0.897379 0.919304
6 1 0.721604 0.297545 0.296083
7 1 0.0484166 0.46881 0.771523
8 1 0.464161 0.492887 0.286663
9 1 0.143674 0.409963 0.779432
10 1 0.392071 0.00654709 0.893627
11 1 0.848101 0.796646 0.616951
12 1 0.0892499 0.0641525 0.318723
13 1 0.740821 0.172404 0.479682
ITEM: TIMESTEP
160
ITEM: NUMBER OF ATOMS
13
ITEM: BOX BOUNDS pp pp pp
0.0000000000000000e+00 1.0000000000000000e+01
0.0000000000000000e+00 1.0000000000000000e+01
0.0000000000000000e+00 1.0000000000000000e+01
ITEM: ATOMS id type xs ys zs
1 1 0.300776 0.954162 0.932882
2 1 0.387715 0.973958 0.00103336
3 1 0.74686 0.229779 0.382406
4 1 0.045744 0.961899 0.33473
5 1 0.396681 0.897453 0.919414
6 1 0.718619 0.29806 0.298097
7 1 0.0484217 0.468889 0.771383
8 1 0.465763 0.491565 0.286813
9 1 0.14359 0.409915 0.779425
10 1 0.391952 0.00660188 0.893742
11 1 0.848466 0.796995 0.616539
12 1 0.0885819 0.064408 0.31873
13 1 0.739239 0.173454 0.479032
ITEM: TIMESTEP
170
ITEM: NUMBER OF ATOMS
13
ITEM: BOX BOUNDS pp pp pp
0.0000000000000000e+00 1.0000000000000000e+01
0.0000000000000000e+00 1.0000000000000000e+01
0.0000000000000000e+00 1.0000000000000000e+01
ITEM: ATOMS id type xs ys zs
1 1 0.300723 0.954182 0.932918
2 1 0.387679 0.973983 0.00108351
3 1 0.749513 0.228881 0.381456
4 1 0.0455088 0.962008 0.334855
5 1 0.396648 0.897463 0.919448
6 1 0.71703 0.298217 0.299335
7 1 0.0484237 0.468916 0.771334
8 1 0.466372 0.491063 0.286871
9 1 0.14356 0.409898 0.779422
10 1 0.391917 0.00663389 0.893771
11 1 0.848595 0.797117 0.616392
12 1 0.0883366 0.064503 0.318736
13 1 0.738101 0.174273 0.478605
ITEM: TIMESTEP
180
ITEM: NUMBER OF ATOMS
13
ITEM: BOX BOUNDS pp pp pp
0.0000000000000000e+00 1.0000000000000000e+01
0.0000000000000000e+00 1.0000000000000000e+01
0.0000000000000000e+00 1.0000000000000000e+01
ITEM: ATOMS id type xs ys zs
1 1 0.30051 0.954245 0.933031
2 1 0.387577 0.974074 0.00128548
3 1 0.759208 0.225663 0.377878
4 1 0.0447482 0.962364 0.335255
5 1 0.396561 0.897456 0.919544
6 1 0.711523 0.297662 0.30538
7 1 0.0484304 0.469003 0.771177
8 1 0.468374 0.489408 0.287066
9 1 0.143467 0.409845 0.779413
10 1 0.39182 0.00676809 0.893834
11 1 0.84901 0.797506 0.615923
12 1 0.0875348 0.0648161 0.318757
13 1 0.733646 0.178329 0.475684
ITEM: TIMESTEP
190
ITEM: NUMBER OF ATOMS
13
ITEM: BOX BOUNDS pp pp pp
0.0000000000000000e+00 1.0000000000000000e+01
0.0000000000000000e+00 1.0000000000000000e+01
0.0000000000000000e+00 1.0000000000000000e+01
ITEM: ATOMS id type xs ys zs
1 1 0.300049 0.954547 0.933553
2 1 0.387001 0.974363 0.0017233
3 1 0.790737 0.21753 0.362355
4 1 0.0413823 0.963958 0.33701
5 1 0.395988 0.897845 0.920083
6 1 0.697469 0.277126 0.35162
7 1 0.0484633 0.469382 0.770492
8 1 0.477299 0.482013 0.28797
9 1 0.143058 0.409611 0.779375
10 1 0.391236 0.00701933 0.894408
11 1 0.850835 0.799198 0.61386
12 1 0.0839436 0.0662232 0.318859
13 1 0.714949 0.208324 0.442919
ITEM: TIMESTEP
200
ITEM: NUMBER OF ATOMS
13
ITEM: BOX BOUNDS pp pp pp
0.0000000000000000e+00 1.0000000000000000e+01
0.0000000000000000e+00 1.0000000000000000e+01
0.0000000000000000e+00 1.0000000000000000e+01
ITEM: ATOMS id type xs ys zs
1 1 0.299948 0.954639 0.933706
2 1 0.386822 0.974442 0.00181331
3 1 0.792213 0.217017 0.36111
4 1 0.0399839 0.96477 0.337564
5 1 0.395803 0.897995 0.920246
6 1 0.697442 0.276502 0.353069
7 1 0.0484837 0.469495 0.770287
8 1 0.480213 0.479168 0.288909
9 1 0.142945 0.409543 0.779358
10 1 0.391049 0.00706945 0.894596
11 1 0.851469 0.799587 0.613213
12 1 0.0819229 0.0672188 0.318986
13 1 0.714115 0.209693 0.441369
ITEM: TIMESTEP
210
ITEM: NUMBER OF ATOMS
13
ITEM: BOX BOUNDS pp pp pp
0.0000000000000000e+00 1.0000000000000000e+01
0.0000000000000000e+00 1.0000000000000000e+01
0.0000000000000000e+00 1.0000000000000000e+01
ITEM: ATOMS id type xs ys zs
1 1 0.298308 0.955491 0.935145
2 1 0.385269 0.975354 0.00330904
3 1 0.792868 0.215695 0.355392
4 1 0.0265318 0.972756 0.342887
5 1 0.394287 0.898842 0.921651
6 1 0.700653 0.27949 0.350042
7 1 0.0486987 0.470575 0.768311
8 1 0.508446 0.45161 0.298004
9 1 0.141847 0.408895 0.779192
10 1 0.389466 0.00802691 0.895986
11 1 0.857586 0.803346 0.606969
12 1 0.0623323 0.076704 0.32025
13 1 0.716115 0.210352 0.437088
ITEM: TIMESTEP
220
ITEM: NUMBER OF ATOMS
13
ITEM: BOX BOUNDS pp pp pp
0.0000000000000000e+00 1.0000000000000000e+01
0.0000000000000000e+00 1.0000000000000000e+01
0.0000000000000000e+00 1.0000000000000000e+01
ITEM: ATOMS id type xs ys zs
1 1 0.298321 0.955892 0.935605
2 1 0.38463 0.975588 0.00322456
3 1 0.785474 0.224823 0.347594
4 1 0.0193127 0.977204 0.345871
5 1 0.393635 0.899668 0.922128
6 1 0.691936 0.28791 0.348141
7 1 0.0487784 0.470911 0.767612
8 1 0.550883 0.412688 0.310537
9 1 0.141448 0.408628 0.779109
10 1 0.388808 0.00800556 0.896644
11 1 0.860311 0.805617 0.603599
12 1 0.0485149 0.0828769 0.322101
13 1 0.710356 0.217326 0.43206
ITEM: TIMESTEP
230
ITEM: NUMBER OF ATOMS
13
ITEM: BOX BOUNDS pp pp pp
0.0000000000000000e+00 1.0000000000000000e+01
0.0000000000000000e+00 1.0000000000000000e+01
0.0000000000000000e+00 1.0000000000000000e+01
ITEM: ATOMS id type xs ys zs
1 1 0.297647 0.956008 0.935709
2 1 0.384596 0.975883 0.00380188
3 1 0.772541 0.237944 0.340679
4 1 0.015889 0.979377 0.347326
5 1 0.393583 0.899406 0.922184
6 1 0.678333 0.299503 0.345988
7 1 0.0488139 0.471059 0.767295
8 1 0.595474 0.372379 0.323394
9 1 0.141265 0.4085 0.77907
10 1 0.388732 0.00854052 0.896531
11 1 0.861632 0.806777 0.601902
12 1 0.0412917 0.0859955 0.323102
13 1 0.702612 0.225766 0.427247
ITEM: TIMESTEP
240
ITEM: NUMBER OF ATOMS
13
ITEM: BOX BOUNDS pp pp pp
0.0000000000000000e+00 1.0000000000000000e+01
0.0000000000000000e+00 1.0000000000000000e+01
0.0000000000000000e+00 1.0000000000000000e+01
ITEM: ATOMS id type xs ys zs
1 1 0.297441 0.956069 0.93576
2 1 0.384566 0.975984 0.00397973
3 1 0.775201 0.233994 0.343566
4 1 0.0148925 0.979965 0.347864
5 1 0.393571 0.899356 0.922197
6 1 0.684848 0.300914 0.337654
7 1 0.0488262 0.471112 0.767182
8 1 0.594264 0.367603 0.331234
9 1 0.141196 0.408453 0.779057
10 1 0.388704 0.00870347 0.896492
11 1 0.862162 0.807242 0.601207
12 1 0.0391093 0.0868032 0.323382
13 1 0.697627 0.230939 0.424651
ITEM: TIMESTEP
250
ITEM: NUMBER OF ATOMS
13
ITEM: BOX BOUNDS pp pp pp
0.0000000000000000e+00 1.0000000000000000e+01
0.0000000000000000e+00 1.0000000000000000e+01
0.0000000000000000e+00 1.0000000000000000e+01
ITEM: ATOMS id type xs ys zs
1 1 0.297457 0.956381 0.936023
2 1 0.384202 0.976215 0.00389793
3 1 0.770903 0.227474 0.35668
4 1 0.0105476 0.98263 0.350197
5 1 0.393145 0.899937 0.922492
6 1 0.705875 0.305264 0.310883
7 1 0.0488813 0.471343 0.766689
8 1 0.610725 0.333763 0.362765
9 1 0.140896 0.408247 0.779003
10 1 0.388281 0.00877945 0.896902
11 1 0.864479 0.809273 0.598166
12 1 0.0295048 0.0902719 0.324636
13 1 0.677513 0.257559 0.405892
ITEM: TIMESTEP
260
ITEM: NUMBER OF ATOMS
13
ITEM: BOX BOUNDS pp pp pp
0.0000000000000000e+00 1.0000000000000000e+01
0.0000000000000000e+00 1.0000000000000000e+01
0.0000000000000000e+00 1.0000000000000000e+01
ITEM: ATOMS id type xs ys zs
1 1 0.296955 0.956668 0.936236
2 1 0.384004 0.976576 0.00429193
3 1 0.77563 0.224095 0.355023
4 1 0.00536724 0.986106 0.352914
5 1 0.392949 0.900051 0.922625
6 1 0.710189 0.303173 0.310677
7 1 0.0489455 0.471558 0.766195
8 1 0.614677 0.330765 0.361351
9 1 0.140602 0.408024 0.778942
10 1 0.38805 0.00924075 0.89695
11 1 0.867127 0.811804 0.594503
12 1 0.0160976 0.0950148 0.326725
13 1 0.681814 0.254062 0.407794
ITEM: TIMESTEP
270
ITEM: NUMBER OF ATOMS
13
ITEM: BOX BOUNDS pp pp pp
0.0000000000000000e+00 1.0000000000000000e+01
0.0000000000000000e+00 1.0000000000000000e+01
0.0000000000000000e+00 1.0000000000000000e+01
ITEM: ATOMS id type xs ys zs
1 1 0.296443 0.957213 0.936643
2 1 0.383538 0.97714 0.00463259
3 1 0.783218 0.217666 0.35329
4 1 0.996036 0.993649 0.357576
5 1 0.392434 0.90061 0.922966
6 1 0.718704 0.298766 0.31064
7 1 0.0490691 0.471941 0.765299
8 1 0.621578 0.324147 0.360574
9 1 0.140062 0.407624 0.778829
10 1 0.3875 0.00979561 0.897287
11 1 0.871944 0.816422 0.587829
12 1 0.991339 0.102577 0.330845
13 1 0.690544 0.249587 0.407816
ITEM: TIMESTEP
280
ITEM: NUMBER OF ATOMS
13
ITEM: BOX BOUNDS pp pp pp
0.0000000000000000e+00 1.0000000000000000e+01
0.0000000000000000e+00 1.0000000000000000e+01
0.0000000000000000e+00 1.0000000000000000e+01
ITEM: ATOMS id type xs ys zs
1 1 0.296609 0.95756 0.936835
2 1 0.383211 0.977371 0.0043679
3 1 0.794024 0.203501 0.346554
4 1 0.983385 0.0158436 0.358695
5 1 0.392015 0.901304 0.923193
6 1 0.73935 0.295834 0.312443
7 1 0.0491383 0.472081 0.764749
8 1 0.636603 0.303939 0.354059
9 1 0.139747 0.407318 0.778748
10 1 0.387092 0.00982803 0.897669
11 1 0.8757 0.821682 0.58139
12 1 0.933516 0.11709 0.3419
13 1 0.71202 0.243785 0.413624
ITEM: TIMESTEP
290
ITEM: NUMBER OF ATOMS
13
ITEM: BOX BOUNDS pp pp pp
0.0000000000000000e+00 1.0000000000000000e+01
0.0000000000000000e+00 1.0000000000000000e+01
0.0000000000000000e+00 1.0000000000000000e+01
ITEM: ATOMS id type xs ys zs
1 1 0.29613 0.957553 0.936817
2 1 0.383327 0.9775 0.00480934
3 1 0.809996 0.196706 0.34906
4 1 0.970332 0.03664 0.35608
5 1 0.392188 0.900913 0.923079
6 1 0.749671 0.285973 0.313013
7 1 0.0491422 0.472085 0.764713
8 1 0.645174 0.297061 0.353893
9 1 0.139725 0.407297 0.778742
10 1 0.38723 0.0101789 0.897381
11 1 0.875908 0.822091 0.580957
12 1 0.900804 0.126341 0.346502
13 1 0.722783 0.2368 0.40918
ITEM: TIMESTEP
300
ITEM: NUMBER OF ATOMS
13
ITEM: BOX BOUNDS pp pp pp
0.0000000000000000e+00 1.0000000000000000e+01
0.0000000000000000e+00 1.0000000000000000e+01
0.0000000000000000e+00 1.0000000000000000e+01
ITEM: ATOMS id type xs ys zs
1 1 0.296178 0.957573 0.936825
2 1 0.383305 0.977504 0.00475825
3 1 0.807696 0.194702 0.347367
4 1 0.965517 0.0413023 0.356087
5 1 0.392156 0.90098 0.923095
6 1 0.753144 0.285883 0.313238
7 1 0.0491426 0.472085 0.764681
8 1 0.649151 0.292601 0.352888
9 1 0.139706 0.407276 0.778737
10 1 0.387202 0.0101558 0.897419
11 1 0.876019 0.822426 0.580651
12 1 0.897298 0.128811 0.347564
13 1 0.725894 0.235837 0.410918
ITEM: TIMESTEP
310
ITEM: NUMBER OF ATOMS
13
ITEM: BOX BOUNDS pp pp pp
0.0000000000000000e+00 1.0000000000000000e+01
0.0000000000000000e+00 1.0000000000000000e+01
0.0000000000000000e+00 1.0000000000000000e+01
ITEM: ATOMS id type xs ys zs
1 1 0.296468 0.957632 0.936853
2 1 0.383206 0.977472 0.00447287
3 1 0.796906 0.186415 0.339822
4 1 0.959916 0.0445044 0.356806
5 1 0.392011 0.901294 0.923178
6 1 0.759852 0.291232 0.318456
7 1 0.0491427 0.472087 0.764604
8 1 0.654079 0.280449 0.348573
9 1 0.139661 0.407226 0.778724
10 1 0.387078 0.00997676 0.897618
11 1 0.876278 0.823232 0.579917
12 1 0.894055 0.135278 0.34978
13 1 0.733756 0.24034 0.415424
ITEM: TIMESTEP
320
ITEM: NUMBER OF ATOMS
13
ITEM: BOX BOUNDS pp pp pp
0.0000000000000000e+00 1.0000000000000000e+01
0.0000000000000000e+00 1.0000000000000000e+01
0.0000000000000000e+00 1.0000000000000000e+01
ITEM: ATOMS id type xs ys zs
1 1 0.296073 0.957641 0.936841
2 1 0.3833 0.977592 0.00483398
3 1 0.772588 0.18103 0.330963
4 1 0.944469 0.0609595 0.355999
5 1 0.392149 0.900989 0.923084
6 1 0.777977 0.296637 0.327332
7 1 0.0491422 0.472086 0.764543
8 1 0.676274 0.245335 0.337337
9 1 0.139624 0.407187 0.778713
10 1 0.387187 0.0102787 0.897382
11 1 0.876459 0.823859 0.579358
12 1 0.873682 0.1487 0.354132
13 1 0.753485 0.244845 0.42371
ITEM: TIMESTEP
330
ITEM: NUMBER OF ATOMS
13
ITEM: BOX BOUNDS pp pp pp
0.0000000000000000e+00 1.0000000000000000e+01
0.0000000000000000e+00 1.0000000000000000e+01
0.0000000000000000e+00 1.0000000000000000e+01
ITEM: ATOMS id type xs ys zs
1 1 0.296103 0.957666 0.936849
2 1 0.383286 0.977605 0.00480161
3 1 0.761712 0.169665 0.316417
4 1 0.921318 0.0851842 0.355415
5 1 0.392127 0.901043 0.923095
6 1 0.797441 0.273816 0.325341
7 1 0.0491377 0.472081 0.764498
8 1 0.688927 0.249308 0.345907
9 1 0.139596 0.407159 0.778705
10 1 0.387166 0.0102743 0.897407
11 1 0.876537 0.824252 0.579035
12 1 0.859532 0.179554 0.368497
13 1 0.769525 0.21953 0.41826
ITEM: TIMESTEP
340
ITEM: NUMBER OF ATOMS
13
ITEM: BOX BOUNDS pp pp pp
0.0000000000000000e+00 1.0000000000000000e+01
0.0000000000000000e+00 1.0000000000000000e+01
0.0000000000000000e+00 1.0000000000000000e+01
ITEM: ATOMS id type xs ys zs
1 1 0.296177 0.957687 0.936858
2 1 0.383264 0.977603 0.00473032
3 1 0.76944 0.164835 0.320294
4 1 0.90304 0.0875013 0.351243
5 1 0.392092 0.901127 0.923115
6 1 0.798812 0.270977 0.324966
7 1 0.0491334 0.472076 0.764462
8 1 0.691844 0.244698 0.344167
9 1 0.139575 0.407137 0.778697
10 1 0.387136 0.0102356 0.897457
11 1 0.876556 0.824493 0.578862
12 1 0.866574 0.19273 0.370782
13 1 0.768766 0.216038 0.418595
ITEM: TIMESTEP
350
ITEM: NUMBER OF ATOMS
13
ITEM: BOX BOUNDS pp pp pp
0.0000000000000000e+00 1.0000000000000000e+01
0.0000000000000000e+00 1.0000000000000000e+01
0.0000000000000000e+00 1.0000000000000000e+01
ITEM: ATOMS id type xs ys zs
1 1 0.296139 0.957711 0.936862
2 1 0.383272 0.977636 0.0047619
3 1 0.7839 0.160351 0.323451
4 1 0.871382 0.0956549 0.34602
5 1 0.392098 0.901124 0.923108
6 1 0.799361 0.271423 0.326063
7 1 0.0491261 0.472068 0.764406
8 1 0.69644 0.229643 0.339757
9 1 0.139541 0.407101 0.778684
10 1 0.38714 0.0102839 0.897438
11 1 0.876581 0.824877 0.578588
12 1 0.874457 0.203926 0.374627
13 1 0.772971 0.21534 0.420461
ITEM: TIMESTEP
360
ITEM: NUMBER OF ATOMS
13
ITEM: BOX BOUNDS pp pp pp
0.0000000000000000e+00 1.0000000000000000e+01
0.0000000000000000e+00 1.0000000000000000e+01
0.0000000000000000e+00 1.0000000000000000e+01
ITEM: ATOMS id type xs ys zs
1 1 0.296131 0.957754 0.936872
2 1 0.383272 0.977678 0.00476416
3 1 0.792467 0.170102 0.304487
4 1 0.853254 0.0952419 0.374542
5 1 0.39209 0.901165 0.923107
6 1 0.793158 0.280361 0.334348
7 1 0.0491098 0.472049 0.764304
8 1 0.696937 0.224457 0.344959
9 1 0.139481 0.407039 0.77866
10 1 0.38713 0.0103268 0.897438
11 1 0.876562 0.825482 0.578163
12 1 0.88045 0.209632 0.358867
13 1 0.782367 0.195851 0.413715
ITEM: TIMESTEP
370
ITEM: NUMBER OF ATOMS
13
ITEM: BOX BOUNDS pp pp pp
0.0000000000000000e+00 1.0000000000000000e+01
0.0000000000000000e+00 1.0000000000000000e+01
0.0000000000000000e+00 1.0000000000000000e+01
ITEM: ATOMS id type xs ys zs
1 1 0.296132 0.957761 0.936874
2 1 0.383272 0.977685 0.00476305
3 1 0.791627 0.170851 0.302402
4 1 0.844649 0.105629 0.376187
5 1 0.392088 0.901174 0.923108
6 1 0.795199 0.277139 0.338016
7 1 0.0491071 0.472046 0.764287
8 1 0.699922 0.218987 0.344885
9 1 0.139471 0.407028 0.778656
10 1 0.387128 0.0103331 0.897439
11 1 0.876557 0.825593 0.578087
12 1 0.8818 0.209383 0.357183
13 1 0.785458 0.19353 0.412341
ITEM: TIMESTEP
380
ITEM: NUMBER OF ATOMS
13
ITEM: BOX BOUNDS pp pp pp
0.0000000000000000e+00 1.0000000000000000e+01
0.0000000000000000e+00 1.0000000000000000e+01
0.0000000000000000e+00 1.0000000000000000e+01
ITEM: ATOMS id type xs ys zs
1 1 0.296131 0.957765 0.936874
2 1 0.383272 0.977688 0.00476313
3 1 0.79211 0.171322 0.301954
4 1 0.843436 0.105636 0.376256
5 1 0.392087 0.901177 0.923108
6 1 0.795075 0.277308 0.33816
7 1 0.049106 0.472045 0.764279
8 1 0.700194 0.217808 0.345041
9 1 0.139466 0.407023 0.778654
10 1 0.387127 0.0103364 0.897439
11 1 0.876552 0.825649 0.578052
12 1 0.881972 0.209249 0.357028
13 1 0.78588 0.194132 0.412619
ITEM: TIMESTEP
390
ITEM: NUMBER OF ATOMS
13
ITEM: BOX BOUNDS pp pp pp
0.0000000000000000e+00 1.0000000000000000e+01
0.0000000000000000e+00 1.0000000000000000e+01
0.0000000000000000e+00 1.0000000000000000e+01
ITEM: ATOMS id type xs ys zs
1 1 0.296084 0.958155 0.936956
2 1 0.383285 0.978061 0.004766
3 1 0.79239 0.169789 0.30293
4 1 0.843505 0.104327 0.377707
5 1 0.392017 0.901557 0.9231
6 1 0.795692 0.27596 0.33841
7 1 0.0489776 0.471876 0.763388
8 1 0.700499 0.217084 0.34543
9 1 0.138937 0.406456 0.778444
10 1 0.387049 0.0107154 0.897445
11 1 0.875955 0.832077 0.57395
12 1 0.882229 0.207865 0.358287
13 1 0.78579 0.193216 0.413415
ITEM: TIMESTEP
400
ITEM: NUMBER OF ATOMS
13
ITEM: BOX BOUNDS pp pp pp
0.0000000000000000e+00 1.0000000000000000e+01
0.0000000000000000e+00 1.0000000000000000e+01
0.0000000000000000e+00 1.0000000000000000e+01
ITEM: ATOMS id type xs ys zs
1 1 0.296081 0.958161 0.936957
2 1 0.383285 0.978068 0.00476798
3 1 0.792478 0.169813 0.30293
4 1 0.843314 0.104376 0.377784
5 1 0.392017 0.901562 0.9231
6 1 0.795666 0.275996 0.338523
7 1 0.0489754 0.471872 0.763373
8 1 0.70055 0.216892 0.345398
9 1 0.138929 0.406445 0.778441
10 1 0.387048 0.0107233 0.897443
11 1 0.87594 0.832212 0.573864
12 1 0.882253 0.207763 0.358203
13 1 0.785873 0.193257 0.413442
ITEM: TIMESTEP
410
ITEM: NUMBER OF ATOMS
13
ITEM: BOX BOUNDS pp pp pp
0.0000000000000000e+00 1.0000000000000000e+01
0.0000000000000000e+00 1.0000000000000000e+01
0.0000000000000000e+00 1.0000000000000000e+01
ITEM: ATOMS id type xs ys zs
1 1 0.295916 0.959481 0.937228
2 1 0.383332 0.979333 0.00478371
3 1 0.793863 0.163911 0.306787
4 1 0.842639 0.0994675 0.383868
5 1 0.391785 0.902841 0.923072
6 1 0.798032 0.270827 0.340088
7 1 0.0485986 0.471014 0.760503
8 1 0.70197 0.213223 0.3467
9 1 0.137275 0.404383 0.777739
10 1 0.386789 0.0120118 0.897455
11 1 0.87299 0.858899 0.556828
12 1 0.883322 0.201842 0.362545
13 1 0.785897 0.189904 0.416631
ITEM: TIMESTEP
420
ITEM: NUMBER OF ATOMS
13
ITEM: BOX BOUNDS pp pp pp
0.0000000000000000e+00 1.0000000000000000e+01
0.0000000000000000e+00 1.0000000000000000e+01
0.0000000000000000e+00 1.0000000000000000e+01
ITEM: ATOMS id type xs ys zs
1 1 0.29583 0.960241 0.937379
2 1 0.383362 0.980057 0.00478737
3 1 0.795635 0.156672 0.311043
4 1 0.840761 0.0937113 0.391256
5 1 0.391654 0.903577 0.923054
6 1 0.800781 0.264567 0.341791
7 1 0.0484659 0.470026 0.759101
8 1 0.703987 0.20846 0.3488
9 1 0.136559 0.402942 0.777352
10 1 0.386648 0.0127482 0.897461
11 1 0.868056 0.893353 0.534532
12 1 0.884645 0.194391 0.367634
13 1 0.786025 0.186394 0.420037
ITEM: TIMESTEP
430
ITEM: NUMBER OF ATOMS
13
ITEM: BOX BOUNDS pp pp pp
0.0000000000000000e+00 1.0000000000000000e+01
0.0000000000000000e+00 1.0000000000000000e+01
0.0000000000000000e+00 1.0000000000000000e+01
ITEM: ATOMS id type xs ys zs
1 1 0.295486 0.961653 0.937652
2 1 0.383469 0.981454 0.00496497
3 1 0.798538 0.13798 0.324608
4 1 0.839066 0.0796057 0.407518
5 1 0.391482 0.904793 0.922974
6 1 0.808169 0.251328 0.34656
7 1 0.0481049 0.46825 0.756456
8 1 0.706844 0.199187 0.350179
9 1 0.135338 0.400145 0.776654
10 1 0.386444 0.0142541 0.89736
11 1 0.856311 0.973634 0.482105
12 1 0.886762 0.176823 0.377783
13 1 0.786395 0.17803 0.429413
ITEM: TIMESTEP
440
ITEM: NUMBER OF ATOMS
13
ITEM: BOX BOUNDS pp pp pp
0.0000000000000000e+00 1.0000000000000000e+01
0.0000000000000000e+00 1.0000000000000000e+01
0.0000000000000000e+00 1.0000000000000000e+01
ITEM: ATOMS id type xs ys zs
1 1 0.295663 0.961669 0.937661
2 1 0.383419 0.981418 0.00479944
3 1 0.798183 0.136883 0.324435
4 1 0.838221 0.0786095 0.410714
5 1 0.391411 0.904954 0.92302
6 1 0.809257 0.246303 0.346148
7 1 0.0482018 0.468162 0.756471
8 1 0.70864 0.197448 0.352753
9 1 0.135237 0.400208 0.776629
10 1 0.386386 0.0141352 0.897471
11 1 0.853976 0.987455 0.473176
12 1 0.887424 0.174473 0.381029
13 1 0.786389 0.175421 0.42992
ITEM: TIMESTEP
450
ITEM: NUMBER OF ATOMS
13
ITEM: BOX BOUNDS pp pp pp
0.0000000000000000e+00 1.0000000000000000e+01
0.0000000000000000e+00 1.0000000000000000e+01
0.0000000000000000e+00 1.0000000000000000e+01
ITEM: ATOMS id type xs ys zs
1 1 0.295704 0.961741 0.937679
2 1 0.383411 0.981472 0.00475758
3 1 0.79962 0.140539 0.319189
4 1 0.83801 0.0750017 0.400963
5 1 0.391381 0.905061 0.923032
6 1 0.80905 0.247056 0.353983
7 1 0.0481917 0.468007 0.756369
8 1 0.708805 0.195064 0.355099
9 1 0.1352 0.400033 0.776591
10 1 0.38636 0.014168 0.897504
11 1 0.850975 0.997747 0.480651
12 1 0.888289 0.172233 0.37864
13 1 0.787414 0.169016 0.429768
ITEM: TIMESTEP
460
ITEM: NUMBER OF ATOMS
13
ITEM: BOX BOUNDS pp pp pp
0.0000000000000000e+00 1.0000000000000000e+01
0.0000000000000000e+00 1.0000000000000000e+01
0.0000000000000000e+00 1.0000000000000000e+01
ITEM: ATOMS id type xs ys zs
1 1 0.295727 0.961957 0.93773
2 1 0.383413 0.981662 0.0047247