ITEM: TIMESTEP
0
ITEM: NUMBER OF ATOMS
13
ITEM: BOX BOUNDS pp pp pp
0.0000000000000000e+00 1.0910000000000000e+01
0.0000000000000000e+00 1.0910000000000000e+01
0.0000000000000000e+00 1.0910000000000000e+01
ITEM: ATOMS id type xs ys zs
1 1 0.997406 0.405746 0.369392
2 1 0.368837 0.0427632 0.72058
3 1 0.795336 0.207833 0.0468533
4 1 0.463323 0.0636599 0.932016
5 1 0.3903 0.772253 0.259671
6 1 0.283554 0.695889 0.808398
7 1 0.747923 0.344141 0.972788
8 1 0.644739 0.120155 0.439398
9 1 0.967543 0.494495 0.96938
10 1 0.37266 0.290258 0.366453
11 1 0.979399 0.757706 0.772097
12 1 0.633564 0.304894 0.352448
13 1 0.591232 0.832478 0.465005
ITEM: TIMESTEP
10
ITEM: NUMBER OF ATOMS
13
ITEM: BOX BOUNDS pp pp pp
0.0000000000000000e+00 1.0910000000000000e+01
0.0000000000000000e+00 1.0910000000000000e+01
0.0000000000000000e+00 1.0910000000000000e+01
ITEM: ATOMS id type xs ys zs
1 1 0.997063 0.405451 0.368955
2 1 0.3756 0.0436639 0.73474
3 1 0.786992 0.23343 0.0339657
4 1 0.457373 0.062416 0.917699
5 1 0.392283 0.772939 0.261549
6 1 0.281887 0.696829 0.808217
7 1 0.759633 0.322294 0.986273
8 1 0.640048 0.164922 0.417431
9 1 0.963407 0.491493 0.969336
10 1 0.380057 0.289786 0.366495
11 1 0.981104 0.756389 0.773011
12 1 0.630815 0.258063 0.373744
13 1 0.58955 0.834595 0.463064
ITEM: TIMESTEP
20
ITEM: NUMBER OF ATOMS
13
ITEM: BOX BOUNDS pp pp pp
0.0000000000000000e+00 1.0910000000000000e+01
0.0000000000000000e+00 1.0910000000000000e+01
0.0000000000000000e+00 1.0910000000000000e+01
ITEM: ATOMS id type xs ys zs
1 1 0.996803 0.405204 0.368613
2 1 0.396664 0.0480794 0.78133
3 1 0.78694 0.235305 0.0337478
4 1 0.436776 0.0576439 0.871003
5 1 0.394045 0.773558 0.263246
6 1 0.280456 0.697637 0.808071
7 1 0.763235 0.324126 0.986746
8 1 0.638274 0.162236 0.418354
9 1 0.95939 0.488332 0.969457
10 1 0.388576 0.287932 0.367113
11 1 0.982586 0.755325 0.773745
12 1 0.624268 0.261764 0.371683
13 1 0.587802 0.835129 0.461371
ITEM: TIMESTEP
30
ITEM: NUMBER OF ATOMS
13
ITEM: BOX BOUNDS pp pp pp
0.0000000000000000e+00 1.0910000000000000e+01
0.0000000000000000e+00 1.0910000000000000e+01
0.0000000000000000e+00 1.0910000000000000e+01
ITEM: ATOMS id type xs ys zs
1 1 0.996395 0.404885 0.368099
2 1 0.395841 0.0472918 0.779076
3 1 0.787386 0.23801 0.033567
4 1 0.437889 0.0576996 0.873022
5 1 0.396993 0.774574 0.266138
6 1 0.27824 0.698925 0.807899
7 1 0.770336 0.328938 0.986998
8 1 0.633095 0.168592 0.414936
9 1 0.951391 0.481703 0.969978
10 1 0.410639 0.283526 0.368437
11 1 0.984933 0.75379 0.774795
12 1 0.607757 0.25861 0.373057
13 1 0.584921 0.835727 0.458478
ITEM: TIMESTEP
40
ITEM: NUMBER OF ATOMS
13
ITEM: BOX BOUNDS pp pp pp
0.0000000000000000e+00 1.0910000000000000e+01
0.0000000000000000e+00 1.0910000000000000e+01
0.0000000000000000e+00 1.0910000000000000e+01
ITEM: ATOMS id type xs ys zs
1 1 0.995907 0.404557 0.367495
2 1 0.396115 0.0466817 0.779223
3 1 0.787938 0.242916 0.0324959
4 1 0.437923 0.0574611 0.872591
5 1 0.400762 0.775887 0.269856
6 1 0.275538 0.70044 0.807669
7 1 0.781396 0.335332 0.987722
8 1 0.623425 0.179377 0.409492
9 1 0.939285 0.471364 0.971026
10 1 0.463343 0.273878 0.371044
11 1 0.987794 0.752066 0.775962
12 1 0.565166 0.25605 0.375133
13 1 0.581222 0.83626 0.45477
ITEM: TIMESTEP
50
ITEM: NUMBER OF ATOMS
13
ITEM: BOX BOUNDS pp pp pp
0.0000000000000000e+00 1.0910000000000000e+01
0.0000000000000000e+00 1.0910000000000000e+01
0.0000000000000000e+00 1.0910000000000000e+01
ITEM: ATOMS id type xs ys zs
1 1 0.995612 0.404435 0.367121
2 1 0.39619 0.0463163 0.779131
3 1 0.78887 0.250447 0.029757
4 1 0.437988 0.057333 0.872492
5 1 0.403697 0.776942 0.272786
6 1 0.273721 0.701368 0.807487
7 1 0.798968 0.34503 0.988601
8 1 0.602618 0.178659 0.410418
9 1 0.920542 0.454569 0.9733
10 1 0.472391 0.256821 0.378783
11 1 0.989726 0.751166 0.776554
12 1 0.577207 0.273011 0.366183
13 1 0.578284 0.836174 0.451865
ITEM: TIMESTEP
60
ITEM: NUMBER OF ATOMS
13
ITEM: BOX BOUNDS pp pp pp
0.0000000000000000e+00 1.0910000000000000e+01
0.0000000000000000e+00 1.0910000000000000e+01
0.0000000000000000e+00 1.0910000000000000e+01
ITEM: ATOMS id type xs ys zs
1 1 0.995404 0.40435 0.366858
2 1 0.396243 0.0460637 0.779068
3 1 0.79222 0.265475 0.0240619
4 1 0.438029 0.0572428 0.872419
5 1 0.4058 0.777699 0.274888
6 1 0.272446 0.702015 0.807357
7 1 0.822852 0.356117 0.990613
8 1 0.577459 0.187771 0.406947
9 1 0.893144 0.428742 0.977286
10 1 0.490535 0.239478 0.38625
11 1 0.991084 0.750553 0.776956
12 1 0.584423 0.280674 0.361994
13 1 0.576177 0.83609 0.449782
ITEM: TIMESTEP
70
ITEM: NUMBER OF ATOMS
13
ITEM: BOX BOUNDS pp pp pp
0.0000000000000000e+00 1.0910000000000000e+01
0.0000000000000000e+00 1.0910000000000000e+01
0.0000000000000000e+00 1.0910000000000000e+01
ITEM: ATOMS id type xs ys zs
1 1 0.99538 0.404342 0.366828
2 1 0.396248 0.0460404 0.779059
3 1 0.792387 0.26463 0.0245381
4 1 0.438029 0.0572328 0.87241
5 1 0.406078 0.777801 0.275169
6 1 0.272308 0.702081 0.807341
7 1 0.821891 0.356773 0.990039
8 1 0.577609 0.187683 0.406966
9 1 0.893923 0.428942 0.977432
10 1 0.49152 0.240041 0.385927
11 1 0.991235 0.75051 0.776983
12 1 0.583313 0.280143 0.362283
13 1 0.575894 0.836051 0.449504
ITEM: TIMESTEP
80
ITEM: NUMBER OF ATOMS
13
ITEM: BOX BOUNDS pp pp pp
0.0000000000000000e+00 1.0910000000000000e+01
0.0000000000000000e+00 1.0910000000000000e+01
0.0000000000000000e+00 1.0910000000000000e+01
ITEM: ATOMS id type xs ys zs
1 1 0.995249 0.4043 0.366667
2 1 0.39627 0.045914 0.779012
3 1 0.795399 0.265553 0.0251607
4 1 0.438033 0.057179 0.872362
5 1 0.407629 0.778372 0.276738
6 1 0.271556 0.702438 0.807253
7 1 0.817933 0.358601 0.988102
8 1 0.577588 0.187634 0.406905
9 1 0.894794 0.426251 0.979003
10 1 0.491666 0.239973 0.385924
11 1 0.992057 0.750278 0.777127
12 1 0.583323 0.279956 0.362273
13 1 0.574319 0.835824 0.447953
ITEM: TIMESTEP
90
ITEM: NUMBER OF ATOMS
13
ITEM: BOX BOUNDS pp pp pp
0.0000000000000000e+00 1.0910000000000000e+01
0.0000000000000000e+00 1.0910000000000000e+01
0.0000000000000000e+00 1.0910000000000000e+01
ITEM: ATOMS id type xs ys zs
1 1 0.994505 0.404056 0.36575
2 1 0.396387 0.0452022 0.778748
3 1 0.823023 0.284358 0.0254086
4 1 0.43804 0.056874 0.872086
5 1 0.417645 0.782046 0.2869
6 1 0.267117 0.704477 0.806728
7 1 0.79263 0.37073 0.975406
8 1 0.575997 0.184684 0.407918
9 1 0.89206 0.395632 0.992919
10 1 0.494086 0.238976 0.38612
11 1 0.996902 0.748965 0.777942
12 1 0.583241 0.282184 0.360655
13 1 0.564179 0.834086 0.4379
ITEM: TIMESTEP
100
ITEM: NUMBER OF ATOMS
13
ITEM: BOX BOUNDS pp pp pp
0.0000000000000000e+00 1.0910000000000000e+01
0.0000000000000000e+00 1.0910000000000000e+01
0.0000000000000000e+00 1.0910000000000000e+01
ITEM: ATOMS id type xs ys zs
1 1 0.993722 0.403764 0.364697
2 1 0.396463 0.0445079 0.778493
3 1 0.833525 0.295491 0.0241201
4 1 0.43799 0.0565687 0.87179
5 1 0.442526 0.791192 0.312463
6 1 0.261599 0.706645 0.806068
7 1 0.786531 0.373636 0.972616
8 1 0.577973 0.185841 0.406779
9 1 0.88738 0.381787 0.998585
10 1 0.491898 0.239412 0.385875
11 1 0.00289771 0.747659 0.778771
12 1 0.584074 0.278912 0.361729
13 1 0.539235 0.826854 0.412495
ITEM: TIMESTEP
110
ITEM: NUMBER OF ATOMS
13
ITEM: BOX BOUNDS pp pp pp
0.0000000000000000e+00 1.0910000000000000e+01
0.0000000000000000e+00 1.0910000000000000e+01
0.0000000000000000e+00 1.0910000000000000e+01
ITEM: ATOMS id type xs ys zs
1 1 0.993389 0.403634 0.364234
2 1 0.39647 0.0442179 0.778353
3 1 0.833576 0.2966 0.023946
4 1 0.437974 0.0564469 0.871698
5 1 0.456357 0.796293 0.326706
6 1 0.259054 0.707577 0.805762
7 1 0.787227 0.373207 0.973173
8 1 0.577821 0.185948 0.40654
9 1 0.886543 0.381168 0.998886
10 1 0.492176 0.239138 0.385926
11 1 0.00565419 0.747109 0.779124
12 1 0.58418 0.278388 0.361803
13 1 0.525392 0.822544 0.398329
ITEM: TIMESTEP
120
ITEM: NUMBER OF ATOMS
13
ITEM: BOX BOUNDS pp pp pp
0.0000000000000000e+00 1.0910000000000000e+01
0.0000000000000000e+00 1.0910000000000000e+01
0.0000000000000000e+00 1.0910000000000000e+01
ITEM: ATOMS id type xs ys zs
1 1 0.991799 0.403006 0.362009
2 1 0.396434 0.0429561 0.777899
3 1 0.833387 0.296497 0.0256007
4 1 0.437805 0.0559251 0.871137
5 1 0.456648 0.797345 0.327022
6 1 0.236056 0.713384 0.803136
7 1 0.786997 0.373345 0.97369
8 1 0.577991 0.184531 0.406163
9 1 0.886599 0.3814 -1.32286e-05
10 1 0.49226 0.238494 0.385843
11 1 0.0296946 0.74303 0.781904
12 1 0.584767 0.277358 0.361442
13 1 0.525377 0.824998 0.398648
ITEM: TIMESTEP
130
ITEM: NUMBER OF ATOMS
13
ITEM: BOX BOUNDS pp pp pp
0.0000000000000000e+00 1.0910000000000000e+01
0.0000000000000000e+00 1.0910000000000000e+01
0.0000000000000000e+00 1.0910000000000000e+01
ITEM: ATOMS id type xs ys zs
1 1 0.991011 0.402694 0.36089
2 1 0.396528 0.0424318 0.778001
3 1 0.832031 0.297821 0.0253542
4 1 0.437568 0.0556572 0.870542
5 1 0.456155 0.797607 0.326515
6 1 0.187316 0.721255 0.798052
7 1 0.787459 0.371639 0.974999
8 1 0.577796 0.18393 0.405938
9 1 0.88735 0.381907 0.00056441
10 1 0.492526 0.237983 0.385876
11 1 0.078965 0.735929 0.787066
12 1 0.585102 0.276925 0.361227
13 1 0.526007 0.826493 0.399457
ITEM: TIMESTEP
140
ITEM: NUMBER OF ATOMS
13
ITEM: BOX BOUNDS pp pp pp
0.0000000000000000e+00 1.0910000000000000e+01
0.0000000000000000e+00 1.0910000000000000e+01
0.0000000000000000e+00 1.0910000000000000e+01
ITEM: ATOMS id type xs ys zs
1 1 0.990999 0.402689 0.360872
2 1 0.396368 0.0423742 0.777638
3 1 0.8332 0.297013 0.0261271
4 1 0.437726 0.0557064 0.870896
5 1 0.456876 0.797912 0.327268
6 1 0.183867 0.721731 0.797701
7 1 0.787262 0.373051 0.974241
8 1 0.57789 0.184092 0.405846
9 1 0.886377 0.381303 0.000574928
10 1 0.492654 0.238111 0.385803
11 1 0.0824227 0.735461 0.787417
12 1 0.584886 0.27661 0.361385
13 1 0.525288 0.826216 0.398709
ITEM: TIMESTEP
150
ITEM: NUMBER OF ATOMS
13
ITEM: BOX BOUNDS pp pp pp
0.0000000000000000e+00 1.0910000000000000e+01
0.0000000000000000e+00 1.0910000000000000e+01
0.0000000000000000e+00 1.0910000000000000e+01
ITEM: ATOMS id type xs ys zs
1 1 0.955607 0.388667 0.309855
2 1 0.393164 0.0242459 0.767629
3 1 0.8285 0.303338 0.0586887
4 1 0.433488 0.0498138 0.858802
5 1 0.465951 0.822994 0.337244
6 1 0.195892 0.746161 0.797227
7 1 0.789314 0.369646 0.991042
8 1 0.578252 0.156369 0.39513
9 1 0.884714 0.382739 0.026316
10 1 0.499995 0.222415 0.383982
11 1 0.0935555 0.734813 0.791555
12 1 0.595058 0.249927 0.355583
13 1 0.522321 0.881141 0.401425
ITEM: TIMESTEP
160
ITEM: NUMBER OF ATOMS
13
ITEM: BOX BOUNDS pp pp pp
0.0000000000000000e+00 1.0910000000000000e+01
0.0000000000000000e+00 1.0910000000000000e+01
0.0000000000000000e+00 1.0910000000000000e+01
ITEM: ATOMS id type xs ys zs
1 1 0.942741 0.383438 0.286232
2 1 0.391853 0.0194274 0.765622
3 1 0.828306 0.306084 0.0709333
4 1 0.43219 0.0480693 0.855886
5 1 0.470336 0.832279 0.341991
6 1 0.198435 0.752424 0.796968
7 1 0.792015 0.367931 0.997469
8 1 0.576836 0.145822 0.39119
9 1 0.885755 0.384243 0.0371263
10 1 0.501381 0.216626 0.383844
11 1 0.0970527 0.735097 0.792439
12 1 0.597385 0.239681 0.355436
13 1 0.521527 0.901149 0.399342
ITEM: TIMESTEP
170
ITEM: NUMBER OF ATOMS
13
ITEM: BOX BOUNDS pp pp pp
0.0000000000000000e+00 1.0910000000000000e+01
0.0000000000000000e+00 1.0910000000000000e+01
0.0000000000000000e+00 1.0910000000000000e+01
ITEM: ATOMS id type xs ys zs
1 1 0.920231 0.374177 0.233997
2 1 0.390008 0.0154866 0.764902
3 1 0.831564 0.311702 0.0932095
4 1 0.430918 0.0464016 0.854101
5 1 0.47792 0.846699 0.349908
6 1 0.200414 0.7572 0.796613
7 1 0.801895 0.364697 0.0102131
8 1 0.570537 0.130316 0.385937
9 1 0.889504 0.38873 0.0582532
10 1 0.502293 0.206452 0.384863
11 1 0.0998079 0.735998 0.792759
12 1 0.59926 0.224663 0.357451
13 1 0.521463 0.92975 0.392273
ITEM: TIMESTEP
180
ITEM: NUMBER OF ATOMS
13
ITEM: BOX BOUNDS pp pp pp
0.0000000000000000e+00 1.0910000000000000e+01
0.0000000000000000e+00 1.0910000000000000e+01
0.0000000000000000e+00 1.0910000000000000e+01
ITEM: ATOMS id type xs ys zs
1 1 0.899147 0.366216 0.180065
2 1 0.389855 0.0151949 0.764864
3 1 0.83696 0.31714 0.113757
4 1 0.430819 0.0462773 0.853977
5 1 0.479717 0.850598 0.351545
6 1 0.200561 0.757548 0.796587
7 1 0.812161 0.362437 0.0235197
8 1 0.568765 0.126314 0.384971
9 1 0.894546 0.393325 0.0786214
10 1 0.501916 0.204235 0.385261
11 1 0.100012 0.736075 0.792779
12 1 0.599496 0.220768 0.358039
13 1 0.521859 0.936142 0.390493
ITEM: TIMESTEP
190
ITEM: NUMBER OF ATOMS
13
ITEM: BOX BOUNDS pp pp pp
0.0000000000000000e+00 1.0910000000000000e+01
0.0000000000000000e+00 1.0910000000000000e+01
0.0000000000000000e+00 1.0910000000000000e+01
ITEM: ATOMS id type xs ys zs
1 1 0.879444 0.377572 0.170037
2 1 0.389042 0.0136672 0.764658
3 1 0.845721 0.304313 0.108003
4 1 0.430293 0.0456166 0.853331
5 1 0.494301 0.883905 0.363944
6 1 0.201329 0.759374 0.796452
7 1 0.808707 0.373339 0.045315
8 1 0.553713 0.0971227 0.378155
9 1 0.906874 0.382844 0.0743022
10 1 0.501324 0.185185 0.387634
11 1 0.101084 0.73649 0.792889
12 1 0.598939 0.189372 0.362774
13 1 0.525044 0.98347 0.376984
ITEM: TIMESTEP
200
ITEM: NUMBER OF ATOMS
13
ITEM: BOX BOUNDS pp pp pp
0.0000000000000000e+00 1.0910000000000000e+01
0.0000000000000000e+00 1.0910000000000000e+01
0.0000000000000000e+00 1.0910000000000000e+01
ITEM: ATOMS id type xs ys zs
1 1 0.863073 0.383554 0.158252
2 1 0.388886 0.0133758 0.764618
3 1 0.853476 0.297608 0.105041
4 1 0.430191 0.0454898 0.853207
5 1 0.497965 0.893545 0.366536
6 1 0.201476 0.759724 0.796427
7 1 0.810999 0.381469 0.0645831
8 1 0.551181 0.0910439 0.376758
9 1 0.912825 0.375239 0.0700873
10 1 0.499489 0.180091 0.388449
11 1 0.10129 0.736571 0.79291
12 1 0.599877 0.181883 0.363347
13 1 0.525086 0.992677 0.374265
ITEM: TIMESTEP
210
ITEM: NUMBER OF ATOMS
13
ITEM: BOX BOUNDS pp pp pp
0.0000000000000000e+00 1.0910000000000000e+01
0.0000000000000000e+00 1.0910000000000000e+01
0.0000000000000000e+00 1.0910000000000000e+01
ITEM: ATOMS id type xs ys zs
1 1 0.861126 0.384458 0.157526
2 1 0.3885 0.0126672 0.764505
3 1 0.854613 0.296925 0.1044
4 1 0.429935 0.045173 0.852892
5 1 0.499026 0.898962 0.366472
6 1 0.201838 0.760593 0.796365
7 1 0.81064 0.382393 0.0666895
8 1 0.564198 0.0896394 0.377767
9 1 0.91334 0.373655 0.0698862
10 1 0.497329 0.167857 0.387178
11 1 0.101802 0.736778 0.792959
12 1 0.597916 0.184645 0.362358
13 1 0.515551 -0.00147525 0.375481
ITEM: TIMESTEP
220
ITEM: NUMBER OF ATOMS
13
ITEM: BOX BOUNDS pp pp pp
0.0000000000000000e+00 1.0910000000000000e+01
0.0000000000000000e+00 1.0910000000000000e+01
0.0000000000000000e+00 1.0910000000000000e+01
ITEM: ATOMS id type xs ys zs
1 1 0.860324 0.384449 0.157639
2 1 0.387583 0.0109825 0.764243
3 1 0.854094 0.296486 0.104587
4 1 0.429324 0.0444172 0.852137
5 1 0.501773 0.924036 0.367642
6 1 0.20269 0.762659 0.796217
7 1 0.810619 0.382096 0.0675466
8 1 0.589142 0.0803098 0.378899
9 1 0.91313 0.373358 0.070007
10 1 0.498064 0.12847 0.381365
11 1 0.103032 0.737275 0.793077
12 1 0.58394 0.181784 0.363293
13 1 0.5021 0.0259488 0.377826
ITEM: TIMESTEP
230
ITEM: NUMBER OF ATOMS
13
ITEM: BOX BOUNDS pp pp pp
0.0000000000000000e+00 1.0910000000000000e+01
0.0000000000000000e+00 1.0910000000000000e+01
0.0000000000000000e+00 1.0910000000000000e+01
ITEM: ATOMS id type xs ys zs
1 1 0.860064 0.384275 0.157822
2 1 0.386836 0.00964624 0.764044
3 1 0.853811 0.296323 0.104804
4 1 0.428835 0.0438172 0.851531
5 1 0.54028 0.953955 0.367339
6 1 0.203362 0.764291 0.796093
7 1 0.810397 0.381923 0.0677388
8 1 0.569138 0.0603022 0.379968
9 1 0.912878 0.373131 0.0702326
10 1 0.49984 0.13472 0.392585
11 1 0.104016 0.737691 0.793158
12 1 0.594184 0.158372 0.354792
13 1 0.472174 0.0338254 0.374371
ITEM: TIMESTEP
240
ITEM: NUMBER OF ATOMS
13
ITEM: BOX BOUNDS pp pp pp
0.0000000000000000e+00 1.0910000000000000e+01
0.0000000000000000e+00 1.0910000000000000e+01
0.0000000000000000e+00 1.0910000000000000e+01
ITEM: ATOMS id type xs ys zs
1 1 0.860026 0.384251 0.15785
2 1 0.386715 0.00943685 0.764012
3 1 0.853766 0.296288 0.104837
4 1 0.428757 0.0437226 0.851434
5 1 0.541853 0.961638 0.367771
6 1 0.203469 0.76455 0.796073
7 1 0.810365 0.381899 0.0677649
8 1 0.571028 0.0580829 0.383069
9 1 0.912851 0.373103 0.0702575
10 1 0.50046 0.131789 0.395704
11 1 0.104173 0.737759 0.79317
12 1 0.591286 0.153498 0.351764
13 1 0.471065 0.0362534 0.370773
ITEM: TIMESTEP
250
ITEM: NUMBER OF ATOMS
13
ITEM: BOX BOUNDS pp pp pp
0.0000000000000000e+00 1.0910000000000000e+01
0.0000000000000000e+00 1.0910000000000000e+01
0.0000000000000000e+00 1.0910000000000000e+01
ITEM: ATOMS id type xs ys zs
1 1 0.859743 0.384046 0.158056
2 1 0.385737 0.00774363 0.763757
3 1 0.85344 0.296076 0.105082
4 1 0.428127 0.0429555 0.850641
5 1 0.541669 0.970396 0.364805
6 1 0.204326 0.766649 0.795912
7 1 0.810112 0.381692 0.0679668
8 1 0.574375 0.0567403 0.407805
9 1 0.912581 0.372829 0.0704934
10 1 0.504117 0.13096 0.416613
11 1 0.105453 0.738312 0.793267
12 1 0.565069 0.12676 0.333536
13 1 0.491065 0.0571122 0.346545
ITEM: TIMESTEP
260
ITEM: NUMBER OF ATOMS
13
ITEM: BOX BOUNDS pp pp pp
0.0000000000000000e+00 1.0910000000000000e+01
0.0000000000000000e+00 1.0910000000000000e+01
0.0000000000000000e+00 1.0910000000000000e+01
ITEM: ATOMS id type xs ys zs
1 1 0.859735 0.38404 0.158062
2 1 0.3857 0.00767993 0.763749
3 1 0.85343 0.296069 0.105088
4 1 0.428104 0.0429271 0.850612
5 1 0.542861 0.970449 0.363001
6 1 0.204359 0.766729 0.795906
7 1 0.810104 0.381686 0.0679717
8 1 0.573809 0.0569779 0.409229
9 1 0.912574 0.372821 0.0704991
10 1 0.504367 0.132002 0.416198
11 1 0.105503 0.738334 0.79327
12 1 0.565315 0.12536 0.333263
13 1 0.489955 0.0571975 0.34763
ITEM: TIMESTEP
270
ITEM: NUMBER OF ATOMS
13
ITEM: BOX BOUNDS pp pp pp
0.0000000000000000e+00 1.0910000000000000e+01
0.0000000000000000e+00 1.0910000000000000e+01
0.0000000000000000e+00 1.0910000000000000e+01
ITEM: ATOMS id type xs ys zs
1 1 0.859623 0.383956 0.158136
2 1 0.385188 0.00680138 0.763634
3 1 0.853298 0.295976 0.105177
4 1 0.427785 0.0425354 0.850203
5 1 0.559652 0.994215 0.34031
6 1 0.204811 0.767831 0.795818
7 1 0.809998 0.381599 0.0680421
8 1 0.560482 0.0541212 0.425688
9 1 0.912466 0.372706 0.0705789
10 1 0.511843 0.143372 0.406324
11 1 0.106184 0.738636 0.793316
12 1 0.566092 0.0962025 0.332307
13 1 0.478392 0.0543185 0.364945
ITEM: TIMESTEP
280
ITEM: NUMBER OF ATOMS
13
ITEM: BOX BOUNDS pp pp pp
0.0000000000000000e+00 1.0910000000000000e+01
0.0000000000000000e+00 1.0910000000000000e+01
0.0000000000000000e+00 1.0910000000000000e+01
ITEM: ATOMS id type xs ys zs
1 1 0.859619 0.383952 0.158139
2 1 0.385164 0.00675986 0.763629
3 1 0.853292 0.295972 0.10518
4 1 0.42777 0.0425169 0.850183
5 1 0.558786 -0.00507539 0.341596
6 1 0.204832 0.767883 0.795814
7 1 0.809994 0.381595 0.0680449
8 1 0.561191 0.0540501 0.425502
9 1 0.912461 0.372701 0.0705821
10 1 0.511796 0.141968 0.406244
11 1 0.106216 0.738651 0.793318
12 1 0.566414 0.0968507 0.331923
13 1 0.478277 0.0544463 0.364324
ITEM: TIMESTEP
290
ITEM: NUMBER OF ATOMS
13
ITEM: BOX BOUNDS pp pp pp
0.0000000000000000e+00 1.0910000000000000e+01
0.0000000000000000e+00 1.0910000000000000e+01
0.0000000000000000e+00 1.0910000000000000e+01
ITEM: ATOMS id type xs ys zs
1 1 0.855719 0.380788 0.160671
2 1 0.364966 0.971488 0.760309
3 1 0.848631 0.292545 0.10825
4 1 0.414245 0.0259114 0.832186
5 1 0.559509 0.996785 0.343336
6 1 0.220568 0.811463 0.792138
7 1 0.806296 0.378366 0.0704676
8 1 0.561616 0.0549543 0.427974
9 1 0.908661 0.368452 0.073322
10 1 0.511788 0.143009 0.410392
11 1 0.136729 0.75236 0.795074
12 1 0.568015 0.0993726 0.335236
13 1 0.479071 0.0567771 0.365123
ITEM: TIMESTEP
300
ITEM: NUMBER OF ATOMS
13
ITEM: BOX BOUNDS pp pp pp
0.0000000000000000e+00 1.0910000000000000e+01
0.0000000000000000e+00 1.0910000000000000e+01
0.0000000000000000e+00 1.0910000000000000e+01
ITEM: ATOMS id type xs ys zs
1 1 0.853 0.378587 0.162461
2 1 0.33217 0.932567 0.771948
3 1 0.845378 0.290138 0.110399
4 1 0.396578 0.00455603 0.811726
5 1 0.561959 0.997754 0.342023
6 1 0.243348 0.850154 0.785003
7 1 0.803704 0.376117 0.0721527
8 1 0.559582 0.0555122 0.431394
9 1 0.906023 0.365486 0.0752331
10 1 0.513714 0.143217 0.410701
11 1 0.173137 0.777758 0.794863
12 1 0.568656 0.102079 0.3382
13 1 0.478566 0.058345 0.368376
ITEM: TIMESTEP
310
ITEM: NUMBER OF ATOMS
13
ITEM: BOX BOUNDS pp pp pp
0.0000000000000000e+00 1.0910000000000000e+01
0.0000000000000000e+00 1.0910000000000000e+01
0.0000000000000000e+00 1.0910000000000000e+01
ITEM: ATOMS id type xs ys zs
1 1 0.852966 0.37855 0.162466
2 1 0.324755 0.926671 0.777112
3 1 0.845339 0.290128 0.110427
4 1 0.391332 -0.00133097 0.808366
5 1 0.560468 0.998852 0.344038
6 1 0.250603 0.856294 0.783614
7 1 0.803688 0.37608 0.0721866
8 1 0.56097 0.0551626 0.429867
9 1 0.905973 0.365444 0.0752691
10 1 0.512543 0.143931 0.412263
11 1 0.178645 0.783461 0.794264
12 1 0.568826 0.100981 0.337954
13 1 0.479706 0.0580467 0.366651
ITEM: TIMESTEP
320
ITEM: NUMBER OF ATOMS
13
ITEM: BOX BOUNDS pp pp pp
0.0000000000000000e+00 1.0910000000000000e+01
0.0000000000000000e+00 1.0910000000000000e+01
0.0000000000000000e+00 1.0910000000000000e+01
ITEM: ATOMS id type xs ys zs
1 1 0.852955 0.378541 0.162474
2 1 0.324944 0.926651 0.776452
3 1 0.845325 0.290119 0.110437
4 1 0.391066 0.998478 0.808649
5 1 0.560474 0.998843 0.344034
6 1 0.250573 0.856428 0.783912
7 1 0.803679 0.37607 0.0721955
8 1 0.560982 0.0551583 0.429889
9 1 0.905961 0.36543 0.0752791
10 1 0.51254 0.143949 0.412276
11 1 0.178783 0.78356 0.794295
12 1 0.568844 0.100997 0.337941
13 1 0.479688 0.0580462 0.366645
ITEM: TIMESTEP
330
ITEM: NUMBER OF ATOMS
13
ITEM: BOX BOUNDS pp pp pp
0.0000000000000000e+00 1.0910000000000000e+01
0.0000000000000000e+00 1.0910000000000000e+01
0.0000000000000000e+00 1.0910000000000000e+01
ITEM: ATOMS id type xs ys zs
1 1 0.852744 0.378361 0.16264
2 1 0.327484 0.925016 0.763419
3 1 0.845066 0.289922 0.110637
4 1 0.384822 0.99374 0.814019
5 1 0.560542 0.998917 0.344048
6 1 0.25178 0.861017 0.790428
7 1 0.803481 0.375886 0.0723526
8 1 0.561032 0.0551958 0.429956
9 1 0.905757 0.365182 0.0754578
10 1 0.512582 0.144025 0.412362
11 1 0.181845 0.785766 0.794536
12 1 0.568951 0.101109 0.337991
13 1 0.479727 0.0581346 0.366633
ITEM: TIMESTEP
340
ITEM: NUMBER OF ATOMS
13
ITEM: BOX BOUNDS pp pp pp
0.0000000000000000e+00 1.0910000000000000e+01
0.0000000000000000e+00 1.0910000000000000e+01
0.0000000000000000e+00 1.0910000000000000e+01
ITEM: ATOMS id type xs ys zs
1 1 0.852472 0.378125 0.162845
2 1 0.327607 0.914287 0.732171
3 1 0.844732 0.289679 0.110896
4 1 0.351927 0.965385 0.824013
5 1 0.560596 0.998926 0.344099
6 1 0.265827 0.883264 0.815284
7 1 0.803234 0.375643 0.0725627
8 1 0.561037 0.0551982 0.43007
9 1 0.905484 0.364856 0.0756956
10 1 0.512576 0.144135 0.412542
11 1 0.201332 0.803178 0.789761
12 1 0.569234 0.101392 0.337866
13 1 0.479756 0.0582021 0.366674
ITEM: TIMESTEP
350
ITEM: NUMBER OF ATOMS
13
ITEM: BOX BOUNDS pp pp pp
0.0000000000000000e+00 1.0910000000000000e+01
0.0000000000000000e+00 1.0910000000000000e+01
0.0000000000000000e+00 1.0910000000000000e+01
ITEM: ATOMS id type xs ys zs
1 1 0.85244 0.378103 0.162881
2 1 0.323943 0.910807 0.733363
3 1 0.844692 0.289637 0.110927
4 1 0.344656 0.958004 0.822373
5 1 0.560661 0.998978 0.344027
6 1 0.269507 0.887242 0.817387
7 1 0.803195 0.37562 0.0725803
8 1 0.561115 0.0552167 0.430129
9 1 0.905464 0.364822 0.0757168
10 1 0.512633 0.144182 0.412487
11 1 0.208679 0.810132 0.787971
12 1 0.569134 0.101297 0.33802
13 1 0.479696 0.0582301 0.366618
ITEM: TIMESTEP
360
ITEM: NUMBER OF ATOMS
13
ITEM: BOX BOUNDS pp pp pp
0.0000000000000000e+00 1.0910000000000000e+01
0.0000000000000000e+00 1.0910000000000000e+01
0.0000000000000000e+00 1.0910000000000000e+01
ITEM: ATOMS id type xs ys zs
1 1 0.852393 0.378073 0.162947
2 1 0.303818 0.892039 0.743163
3 1 0.84463 0.289563 0.110977
4 1 0.343545 0.953665 0.813079
5 1 0.560614 0.999175 0.344112
6 1 0.267289 0.893881 0.836519
7 1 0.803127 0.375588 0.0726022
8 1 0.561076 0.0552503 0.430049
9 1 0.905443 0.364769 0.0757452
10 1 0.512702 0.144014 0.412413
11 1 0.232281 0.826723 0.768134
12 1 0.569095 0.101262 0.338101
13 1 0.479803 0.0582683 0.366638
ITEM: TIMESTEP
370
ITEM: NUMBER OF ATOMS
13
ITEM: BOX BOUNDS pp pp pp
0.0000000000000000e+00 1.0910000000000000e+01
0.0000000000000000e+00 1.0910000000000000e+01
0.0000000000000000e+00 1.0910000000000000e+01
ITEM: ATOMS id type xs ys zs
1 1 0.852388 0.378057 0.162922
2 1 0.30469 0.892576 0.741873
3 1 0.844628 0.289589 0.110979
4 1 0.344764 0.954688 0.813151
5 1 0.560645 0.999086 0.344069
6 1 0.266124 0.893303 0.83747
7 1 0.803147 0.375572 0.0726216
8 1 0.561054 0.0552667 0.430002
9 1 0.905412 0.364758 0.0757635
10 1 0.512673 0.144105 0.412456
11 1 0.231367 0.825751 0.768386
12 1 0.569066 0.101237 0.338139
13 1 0.479857 0.0582826 0.366648
ITEM: TIMESTEP
380
ITEM: NUMBER OF ATOMS
13
ITEM: BOX BOUNDS pp pp pp
0.0000000000000000e+00 1.0910000000000000e+01
0.0000000000000000e+00 1.0910000000000000e+01
0.0000000000000000e+00 1.0910000000000000e+01
ITEM: ATOMS id type xs ys zs
1 1 0.852148 0.377849 0.163117
2 1 0.301529 0.896289 0.740258
3 1 0.844332 0.289361 0.111214
4 1 0.347704 0.950629 0.813968
5 1 0.56072 0.999152 0.344041
6 1 0.262847 0.896775 0.835825
7 1 0.802923 0.375358 0.0728076
8 1 0.561103 0.0553054 0.430037
9 1 0.90518 0.364468 0.0759745
10 1 0.512728 0.144192 0.412491
11 1 0.235532 0.823185 0.769984
12 1 0.569174 0.101341 0.33815
13 1 0.479894 0.0583673 0.366611
ITEM: TIMESTEP
390
ITEM: NUMBER OF ATOMS
13
ITEM: BOX BOUNDS pp pp pp
0.0000000000000000e+00 1.0910000000000000e+01
0.0000000000000000e+00 1.0910000000000000e+01
0.0000000000000000e+00 1.0910000000000000e+01
ITEM: ATOMS id type xs ys zs
1 1 0.852082 0.377791 0.163171
2 1 0.298703 0.898958 0.738924
3 1 0.844249 0.289297 0.111279
4 1 0.349243 0.946516 0.814681
5 1 0.560742 0.99917 0.344031
6 1 0.260296 0.899784 0.834808
7 1 0.80286 0.375298 0.0728589
8 1 0.561136 0.0553026 0.430091
9 1 0.905116 0.364387 0.076033
10 1 0.512743 0.144218 0.4125
11 1 0.239556 0.821775 0.771388
12 1 0.569231 0.101394 0.33812
13 1 0.479857 0.0583796 0.366592
ITEM: TIMESTEP
400
ITEM: NUMBER OF ATOMS
13
ITEM: BOX BOUNDS pp pp pp
0.0000000000000000e+00 1.0910000000000000e+01
0.0000000000000000e+00 1.0910000000000000e+01
0.0000000000000000e+00 1.0910000000000000e+01
ITEM: ATOMS id type xs ys zs
1 1 0.851996 0.377717 0.163243
2 1 0.291493 0.906917 0.736785
3 1 0.844142 0.289213 0.111364
4 1 0.351968 0.933297 0.815158
5 1 0.56083 0.998988 0.343934
6 1 0.252604 0.907198 0.831088
7 1 0.802778 0.375221 0.0729249
8 1 0.56114 0.0553346 0.430052
9 1 0.905034 0.364283 0.076108
10 1 0.512692 0.144445 0.412613
11 1 0.251975 0.819823 0.77647
12 1 0.569239 0.101408 0.338159
13 1 0.479924 0.058426 0.366581
ITEM: TIMESTEP
410
ITEM: NUMBER OF ATOMS
13
ITEM: BOX BOUNDS pp pp pp
0.0000000000000000e+00 1.0910000000000000e+01
0.0000000000000000e+00 1.0910000000000000e+01
0.0000000000000000e+00 1.0910000000000000e+01
ITEM: ATOMS id type xs ys zs
1 1 0.851822 0.377564 0.163381
2 1 0.28158 0.916427 0.732069
3 1 0.843928 0.289052 0.111535
4 1 0.344504 0.904206 0.812163
5 1 0.560789 0.999342 0.344049
6 1 0.243763 0.917302 0.82755
7 1 0.802619 0.375064 0.0730618
8 1 0.561106 0.055403 0.429946
9 1 0.904862 0.364071 0.076263
10 1 0.512835 0.144209 0.412489
11 1 0.278678 0.829708 0.78711
12 1 0.569233 0.101405 0.338271
13 1 0.480096 0.0585184 0.366591
ITEM: TIMESTEP
420
ITEM: NUMBER OF ATOMS
13
ITEM: BOX BOUNDS pp pp pp
0.0000000000000000e+00 1.0910000000000000e+01
0.0000000000000000e+00 1.0910000000000000e+01
0.0000000000000000e+00 1.0910000000000000e+01
ITEM: ATOMS id type xs ys zs
1 1 0.851815 0.377558 0.163387
2 1 0.28153 0.916407 0.731942
3 1 0.843919 0.289044 0.111542
4 1 0.344636 0.904306 0.812295
5 1 0.560807 -0.000705086 0.344024
6 1 0.243751 0.917398 0.827632
7 1 0.802612 0.375058 0.0730666
8 1 0.561141 0.0553818 0.430019
9 1 0.904856 0.364063 0.0762686
10 1 0.51282 0.144261 0.412514
11 1 0.278628 0.829547 0.787
12 1 0.569281 0.101449 0.338215
13 1 0.480018 0.0585026 0.366574
ITEM: TIMESTEP
430
ITEM: NUMBER OF ATOMS
13
ITEM: BOX BOUNDS pp pp pp
0.0000000000000000e+00 1.0910000000000000e+01
0.0000000000000000e+00 1.0910000000000000e+01
0.0000000000000000e+00 1.0910000000000000e+01
ITEM: ATOMS id type xs ys zs
1 1 0.807228 0.337791 0.199905
2 1 0.322261 0.942267 0.692813
3 1 0.788155 0.246912 0.155847
4 1 0.374044 0.927861 0.780581
5 1 0.573355 0.0158009 0.339968
6 1 0.273033 0.947355 0.782877
7 1 0.760937 0.333836 0.108226
8 1 0.567977 0.0648951 0.429961
9 1 0.860282 0.308876 0.11676
10 1 0.523821 0.156466 0.415837
11 1 0.306978 0.856734 0.747904
12 1 0.5851 0.117712 0.343203
13 1 0.492644 0.075766 0.360598
ITEM: TIMESTEP
440
ITEM: NUMBER OF ATOMS
13
ITEM: BOX BOUNDS pp pp pp
0.0000000000000000e+00 1.0910000000000000e+01
0.0000000000000000e+00 1.0910000000000000e+01
0.0000000000000000e+00 1.0910000000000000e+01
ITEM: ATOMS id type xs ys zs
1 1 0.797534 0.330858 0.208502
2 1 0.326561 0.944489 0.688355
3 1 0.773751 0.239108 0.168208
4 1 0.376613 0.929991 0.777085
5 1 0.579817 0.0213184 0.33532
6 1 0.27595 0.950012 0.778267
7 1 0.751476 0.325337 0.116587
8 1 0.574011 0.0698972 0.425436
9 1 0.849488 0.295564 0.126933
10 1 0.529749 0.161406 0.411936
11 1 0.309829 0.85936 0.743253
12 1 0.591833 0.123374 0.339324
13 1 0.499201 0.0815568 0.355274
ITEM: TIMESTEP
450
ITEM: NUMBER OF ATOMS
13
ITEM: BOX BOUNDS pp pp pp
0.0000000000000000e+00 1.0910000000000000e+01
0.0000000000000000e+00 1.0910000000000000e+01
0.0000000000000000e+00 1.0910000000000000e+01
ITEM: ATOMS id type xs ys zs
1 1 0.790967 0.326027 0.214226
2 1 0.329276 0.946305 0.685598
3 1 0.76402 0.234056 0.176609
4 1 0.378529 0.931177 0.77465
5 1 0.584526 0.0253593 0.331776
6 1 0.277767 0.951816 0.774774
7 1 0.745111 0.319444 0.122352
8 1 0.577789 0.073124 0.422429
9 1 0.841869 0.286411 0.134027
10 1 0.53409 0.165086 0.408898
11 1 0.311834 0.860998 0.740429
12 1 0.596473 0.127216 0.336689
13 1 0.503562 0.0852497 0.352021
ITEM: TIMESTEP
460
ITEM: NUMBER OF ATOMS
13
ITEM: BOX BOUNDS pp pp pp
0.0000000000000000e+00 1.0910000000000000e+01
0.0000000000000000e+00 1.0910000000000000e+01
0.0000000000000000e+00 1.0910000000000000e+01
ITEM: ATOMS id type xs ys zs
1 1 0.789513 0.324963 0.215513
2 1 0.32971 0.946615 0.685223
3 1 0.761837 0.233002 0.178573