ITEM: TIMESTEP
0
ITEM: NUMBER OF ATOMS
6
ITEM: BOX BOUNDS pp pp pp
0.0000000000000000e+00 8.5818200000000040e+00
0.0000000000000000e+00 8.5818200000000040e+00
0.0000000000000000e+00 6.0282300000000024e+00
ITEM: ATOMS id type x y z
1 1 0 0 0
2 1 4.3388 4.3388 3.07277
3 2 1.62565 7.05194 3.07277
4 2 7.05194 1.62565 3.07277
5 2 5.96445 5.96445 0
6 2 2.71314 2.71314 0
ITEM: TIMESTEP
1
ITEM: NUMBER OF ATOMS
6
ITEM: BOX BOUNDS pp pp pp
0.0000000000000000e+00 8.5818200000000040e+00
0.0000000000000000e+00 8.5818200000000040e+00
0.0000000000000000e+00 6.0282300000000024e+00
ITEM: ATOMS id type x y z
1 1 -0.0198015 -0.0198015 -0.0394452
2 1 4.3374 4.3374 3.10528
3 2 1.52565 7.14797 3.09277
4 2 7.14797 1.52565 3.09277
5 2 5.92566 5.92566 -0.0165455
6 2 2.7771 2.7771 -0.0165208
ITEM: TIMESTEP
2
ITEM: NUMBER OF ATOMS
6
ITEM: BOX BOUNDS pp pp pp
0.0000000000000000e+00 8.5818200000000040e+00
0.0000000000000000e+00 8.5818200000000040e+00
0.0000000000000000e+00 6.0282300000000024e+00
ITEM: ATOMS id type x y z
1 1 -0.0350038 -0.0350038 -0.0852347
2 1 4.3351 4.3351 3.13888
3 2 1.42565 7.24413 3.11604
4 2 7.24413 1.42565 3.11604
5 2 5.88636 5.88636 -0.0332944
6 2 2.83775 2.83775 -0.0341156
ITEM: TIMESTEP
3
ITEM: NUMBER OF ATOMS
6
ITEM: BOX BOUNDS pp pp pp
0.0000000000000000e+00 8.5818200000000040e+00
0.0000000000000000e+00 8.5818200000000040e+00
0.0000000000000000e+00 6.0282300000000024e+00
ITEM: ATOMS id type x y z
1 1 -0.0459653 -0.0459653 -0.143135
2 1 4.3319 4.3319 3.17578
3 2 1.32565 7.34011 3.14542
4 2 7.34011 1.32565 3.14542
5 2 5.84508 5.84508 -0.0510727
6 2 2.8972 2.8972 -0.0540949
ITEM: TIMESTEP
4
ITEM: NUMBER OF ATOMS
6
ITEM: BOX BOUNDS pp pp pp
0.0000000000000000e+00 8.5818200000000040e+00
0.0000000000000000e+00 8.5818200000000040e+00
0.0000000000000000e+00 6.0282300000000024e+00
ITEM: ATOMS id type x y z
1 1 -0.0517124 -0.0517124 -0.227368
2 1 4.32741 4.32741 3.22176
3 2 1.22565 7.43532 3.18804
4 2 7.43532 1.22565 3.18804
5 2 5.79808 5.79808 -0.0721976
6 2 2.95924 2.95924 -0.0799697
ITEM: TIMESTEP
5
ITEM: NUMBER OF ATOMS
6
ITEM: BOX BOUNDS pp pp pp
0.0000000000000000e+00 8.5818200000000040e+00
0.0000000000000000e+00 8.5818200000000040e+00
0.0000000000000000e+00 6.0282300000000024e+00
ITEM: ATOMS id type x y z
1 1 -0.052114 -0.052114 -0.327368
2 1 4.3226 4.3226 3.27106
3 2 1.1512 7.50492 3.23853
4 2 7.50492 1.1512 3.23853
5 2 5.75423 5.75423 -0.0938743
6 2 3.01314 3.01314 -0.108581
ITEM: TIMESTEP
6
ITEM: NUMBER OF ATOMS
6
ITEM: BOX BOUNDS pp pp pp
0.0000000000000000e+00 8.5818200000000040e+00
0.0000000000000000e+00 8.5818200000000040e+00
0.0000000000000000e+00 6.0282300000000024e+00
ITEM: ATOMS id type x y z
1 1 -0.0498597 -0.0498597 -0.427368
2 1 4.31816 4.31816 3.32057
3 2 1.10667 7.54502 3.28898
4 2 7.54502 1.10667 3.28898
5 2 5.71685 5.71685 -0.114958
6 2 3.05715 3.05715 -0.13789
ITEM: TIMESTEP
7
ITEM: NUMBER OF ATOMS
6
ITEM: BOX BOUNDS pp pp pp
0.0000000000000000e+00 8.5818200000000040e+00
0.0000000000000000e+00 8.5818200000000040e+00
0.0000000000000000e+00 6.0282300000000024e+00
ITEM: ATOMS id type x y z
1 1 -0.0463554 -0.0463554 -0.527368
2 1 4.31367 4.31367 3.37577
3 2 1.08128 7.56627 3.33939
4 2 7.56627 1.08128 3.33939
5 2 5.68057 5.68057 -0.138134
6 2 3.09854 3.09854 -0.170748
ITEM: TIMESTEP
8
ITEM: NUMBER OF ATOMS
6
ITEM: BOX BOUNDS pp pp pp
0.0000000000000000e+00 8.5818200000000040e+00
0.0000000000000000e+00 8.5818200000000040e+00
0.0000000000000000e+00 6.0282300000000024e+00
ITEM: ATOMS id type x y z
1 1 -0.0427159 -0.0427159 -0.627368
2 1 4.30822 4.30822 3.44738
3 2 1.06873 7.57476 3.38989
4 2 7.57476 1.06873 3.38989
5 2 5.6401 5.6401 -0.168688
6 2 3.1449 3.1449 -0.212789
ITEM: TIMESTEP
9
ITEM: NUMBER OF ATOMS
6
ITEM: BOX BOUNDS pp pp pp
0.0000000000000000e+00 8.5818200000000040e+00
0.0000000000000000e+00 8.5818200000000040e+00
0.0000000000000000e+00 6.0282300000000024e+00
ITEM: ATOMS id type x y z
1 1 -0.0391837 -0.0391837 -0.725149
2 1 4.30235 4.30235 3.54738
3 2 1.06833 7.57116 3.4394
4 2 7.57116 1.06833 3.4394
5 2 5.59077 5.59077 -0.211513
6 2 3.20056 3.20056 -0.271215
ITEM: TIMESTEP
10
ITEM: NUMBER OF ATOMS
6
ITEM: BOX BOUNDS pp pp pp
0.0000000000000000e+00 8.5818200000000040e+00
0.0000000000000000e+00 8.5818200000000040e+00
0.0000000000000000e+00 6.0282300000000024e+00
ITEM: ATOMS id type x y z
1 1 -0.0366593 -0.0366593 -0.795613
2 1 4.29926 4.29926 3.64738
3 2 1.07639 7.56022 3.47521
4 2 7.56022 1.07639 3.47521
5 2 5.54814 5.54814 -0.256566
6 2 3.24664 3.24664 -0.327314
ITEM: TIMESTEP
11
ITEM: NUMBER OF ATOMS
6
ITEM: BOX BOUNDS pp pp pp
0.0000000000000000e+00 8.5818200000000040e+00
0.0000000000000000e+00 8.5818200000000040e+00
0.0000000000000000e+00 6.0282300000000024e+00
ITEM: ATOMS id type x y z
1 1 -0.0341349 -0.0341349 -0.86587
2 1 4.30095 4.30095 3.74738
3 2 1.0852 7.54855 3.51092
4 2 7.54855 1.0852 3.51092
5 2 5.51212 5.51212 -0.305647
6 2 3.2813 3.2813 -0.379402
ITEM: TIMESTEP
12
ITEM: NUMBER OF ATOMS
6
ITEM: BOX BOUNDS pp pp pp
0.0000000000000000e+00 8.5818200000000040e+00
0.0000000000000000e+00 8.5818200000000040e+00
0.0000000000000000e+00 6.0282300000000024e+00
ITEM: ATOMS id type x y z
1 1 -0.0305038 -0.0305038 -0.965656
2 1 4.30716 4.30716 3.84738
3 2 1.08999 7.53982 3.56148
4 2 7.53982 1.08999 3.56148
5 2 5.4855 5.4855 -0.358383
6 2 3.30201 3.30201 -0.427997
ITEM: TIMESTEP
13
ITEM: NUMBER OF ATOMS
6
ITEM: BOX BOUNDS pp pp pp
0.0000000000000000e+00 8.5818200000000040e+00
0.0000000000000000e+00 8.5818200000000040e+00
0.0000000000000000e+00 6.0282300000000024e+00
ITEM: ATOMS id type x y z
1 1 8.555 8.555 4.96257
2 1 4.30569 4.30569 3.9312
3 2 1.0944 7.53149 3.61207
4 2 7.53149 1.0944 3.61207
5 2 5.4775 5.4775 5.63141
6 2 3.31173 3.31173 5.55368
ITEM: TIMESTEP
14
ITEM: NUMBER OF ATOMS
6
ITEM: BOX BOUNDS pp pp pp
0.0000000000000000e+00 8.5818200000000040e+00
0.0000000000000000e+00 8.5818200000000040e+00
0.0000000000000000e+00 6.0282300000000024e+00
ITEM: ATOMS id type x y z
1 1 8.55749 8.55749 4.89565
2 1 4.28388 4.28388 4.0312
3 2 1.11026 7.51293 3.64609
4 2 7.51293 1.11026 3.64609
5 2 5.48104 5.48104 5.60123
6 2 3.33021 3.33021 5.48274
ITEM: TIMESTEP
15
ITEM: NUMBER OF ATOMS
6
ITEM: BOX BOUNDS pp pp pp
0.0000000000000000e+00 8.5818200000000040e+00
0.0000000000000000e+00 8.5818200000000040e+00
0.0000000000000000e+00 6.0282300000000024e+00
ITEM: ATOMS id type x y z
1 1 8.56064 8.56064 4.81123
2 1 4.24421 4.24421 4.1312
3 2 1.12098 7.49881 3.68901
4 2 7.49881 1.12098 3.68901
5 2 5.51099 5.51099 5.58433
6 2 3.34017 3.34017 5.39821
ITEM: TIMESTEP
16
ITEM: NUMBER OF ATOMS
6
ITEM: BOX BOUNDS pp pp pp
0.0000000000000000e+00 8.5818200000000040e+00
0.0000000000000000e+00 8.5818200000000040e+00
0.0000000000000000e+00 6.0282300000000024e+00
ITEM: ATOMS id type x y z
1 1 8.56446 8.56446 4.71123
2 1 4.25646 4.25646 4.15129
3 2 1.12888 7.48677 3.74001
4 2 7.48677 1.12888 3.74001
5 2 5.54891 5.54891 5.57064
6 2 3.29032 3.29032 5.38981
ITEM: TIMESTEP
17
ITEM: NUMBER OF ATOMS
6
ITEM: BOX BOUNDS pp pp pp
0.0000000000000000e+00 8.5818200000000040e+00
0.0000000000000000e+00 8.5818200000000040e+00
0.0000000000000000e+00 6.0282300000000024e+00
ITEM: ATOMS id type x y z
1 1 8.56624 8.56624 4.68084
2 1 4.27863 4.27863 4.20542
3 2 1.21073 7.39843 3.75874
4 2 7.39843 1.21073 3.75874
5 2 5.61135 5.61135 5.53422
6 2 3.21043 3.21043 5.36504
ITEM: TIMESTEP
18
ITEM: NUMBER OF ATOMS
6
ITEM: BOX BOUNDS pp pp pp
0.0000000000000000e+00 8.5818200000000040e+00
0.0000000000000000e+00 8.5818200000000040e+00
0.0000000000000000e+00 6.0282300000000024e+00
ITEM: ATOMS id type x y z
1 1 8.56742 8.56742 4.64781
2 1 4.26875 4.26875 4.23758
3 2 1.20502 7.40089 3.7766
4 2 7.40089 1.20502 3.7766
5 2 5.6102 5.6102 5.52282
6 2 3.22352 3.22352 5.34159
ITEM: TIMESTEP
19
ITEM: NUMBER OF ATOMS
6
ITEM: BOX BOUNDS pp pp pp
0.0000000000000000e+00 8.5818200000000040e+00
0.0000000000000000e+00 8.5818200000000040e+00
0.0000000000000000e+00 6.0282300000000024e+00
ITEM: ATOMS id type x y z
1 1 8.57084 8.57084 4.55469
2 1 4.30114 4.30114 4.26307
3 2 1.20197 7.39239 3.82828
4 2 7.39239 1.20197 3.82828
5 2 5.61075 5.61075 5.48993
6 2 3.19872 3.19872 5.33874
ITEM: TIMESTEP
20
ITEM: NUMBER OF ATOMS
6
ITEM: BOX BOUNDS pp pp pp
0.0000000000000000e+00 8.5818200000000040e+00
0.0000000000000000e+00 8.5818200000000040e+00
0.0000000000000000e+00 6.0282300000000024e+00
ITEM: ATOMS id type x y z
1 1 8.57489 8.57489 4.45469
2 1 4.33422 4.33422 4.32725
3 2 1.23611 7.34038 3.88671
4 2 7.34038 1.23611 3.88671
5 2 5.60877 5.60877 5.43443
6 2 3.18144 3.18144 5.31322
ITEM: TIMESTEP
21
ITEM: NUMBER OF ATOMS
6
ITEM: BOX BOUNDS pp pp pp
0.0000000000000000e+00 8.5818200000000040e+00
0.0000000000000000e+00 8.5818200000000040e+00
0.0000000000000000e+00 6.0282300000000024e+00
ITEM: ATOMS id type x y z
1 1 8.57508 8.57508 4.4588
2 1 4.34362 4.34362 4.38997
3 2 1.27401 7.296 3.88906
4 2 7.296 1.27401 3.88906
5 2 5.58867 5.58867 5.3941
6 2 3.19841 3.19841 5.28202
ITEM: TIMESTEP
22
ITEM: NUMBER OF ATOMS
6
ITEM: BOX BOUNDS pp pp pp
0.0000000000000000e+00 8.5818200000000040e+00
0.0000000000000000e+00 8.5818200000000040e+00
0.0000000000000000e+00 6.0282300000000024e+00
ITEM: ATOMS id type x y z
1 1 8.57525 8.57525 4.44837
2 1 4.36913 4.36913 4.43271
3 2 1.28385 7.281 3.89806
4 2 7.281 1.28385 3.89806
5 2 5.57224 5.57224 5.35856
6 2 3.19434 3.19434 5.26723
ITEM: TIMESTEP
23
ITEM: NUMBER OF ATOMS
6
ITEM: BOX BOUNDS pp pp pp
0.0000000000000000e+00 8.5818200000000040e+00
0.0000000000000000e+00 8.5818200000000040e+00
0.0000000000000000e+00 6.0282300000000024e+00
ITEM: ATOMS id type x y z
1 1 8.57522 8.57522 4.4296
2 1 4.3914 4.3914 4.45268
3 2 1.26629 7.29621 3.90965
4 2 7.29621 1.26629 3.90965
5 2 5.5654 5.5654 5.33811
6 2 3.18128 3.18128 5.2633
ITEM: TIMESTEP
24
ITEM: NUMBER OF ATOMS
6
ITEM: BOX BOUNDS pp pp pp
0.0000000000000000e+00 8.5818200000000040e+00
0.0000000000000000e+00 8.5818200000000040e+00
0.0000000000000000e+00 6.0282300000000024e+00
ITEM: ATOMS id type x y z
1 1 8.575 8.575 4.40106
2 1 4.38002 4.38002 4.49565
3 2 1.24888 7.30784 3.92929
4 2 7.30784 1.24888 3.92929
5 2 5.58638 5.58638 5.31458
6 2 3.17768 3.17768 5.23313
ITEM: TIMESTEP
25
ITEM: NUMBER OF ATOMS
6
ITEM: BOX BOUNDS pp pp pp
0.0000000000000000e+00 8.5818200000000040e+00
0.0000000000000000e+00 8.5818200000000040e+00
0.0000000000000000e+00 6.0282300000000024e+00
ITEM: ATOMS id type x y z
1 1 8.57453 8.57453 4.35184
2 1 4.40279 4.40279 4.59565
3 2 1.24568 7.29298 3.96894
4 2 7.29298 1.24568 3.96894
5 2 5.63162 5.63162 5.2413
6 2 3.1282 3.1282 5.17632
ITEM: TIMESTEP
26
ITEM: NUMBER OF ATOMS
6
ITEM: BOX BOUNDS pp pp pp
0.0000000000000000e+00 8.5818200000000040e+00
0.0000000000000000e+00 8.5818200000000040e+00
0.0000000000000000e+00 6.0282300000000024e+00
ITEM: ATOMS id type x y z
1 1 8.57412 8.57412 4.32298
2 1 4.39091 4.39091 4.68281
3 2 1.26637 7.2536 3.99823
4 2 7.2536 1.26637 3.99823
5 2 5.68277 5.68277 5.18292
6 2 3.10803 3.10803 5.11783
ITEM: TIMESTEP
27
ITEM: NUMBER OF ATOMS
6
ITEM: BOX BOUNDS pp pp pp
0.0000000000000000e+00 8.5818200000000040e+00
0.0000000000000000e+00 8.5818200000000040e+00
0.0000000000000000e+00 6.0282300000000024e+00
ITEM: ATOMS id type x y z
1 1 8.57273 8.57273 4.28876
2 1 4.40147 4.40147 4.78281
3 2 1.27082 7.22348 4.03434
4 2 7.22348 1.27082 4.03434
5 2 5.70688 5.70688 5.10841
6 2 3.10042 3.10042 5.05434
ITEM: TIMESTEP
28
ITEM: NUMBER OF ATOMS
6
ITEM: BOX BOUNDS pp pp pp
0.0000000000000000e+00 8.5818200000000040e+00
0.0000000000000000e+00 8.5818200000000040e+00
0.0000000000000000e+00 6.0282300000000024e+00
ITEM: ATOMS id type x y z
1 1 8.57059 8.57059 4.27078
2 1 4.4149 4.4149 4.81803
3 2 1.24481 7.23336 4.05361
4 2 7.23336 1.24481 4.05361
5 2 5.70209 5.70209 5.07631
6 2 3.11006 3.11006 5.03065
ITEM: TIMESTEP
29
ITEM: NUMBER OF ATOMS
6
ITEM: BOX BOUNDS pp pp pp
0.0000000000000000e+00 8.5818200000000040e+00
0.0000000000000000e+00 8.5818200000000040e+00
0.0000000000000000e+00 6.0282300000000024e+00
ITEM: ATOMS id type x y z
1 1 8.56921 8.56921 4.26354
2 1 4.41042 4.41042 4.83194
3 2 1.23289 7.23173 4.06444
4 2 7.23173 1.23289 4.06444
5 2 5.71215 5.71215 5.06055
6 2 3.1194 3.1194 5.01808
ITEM: TIMESTEP
30
ITEM: NUMBER OF ATOMS
6
ITEM: BOX BOUNDS pp pp pp
0.0000000000000000e+00 8.5818200000000040e+00
0.0000000000000000e+00 8.5818200000000040e+00
0.0000000000000000e+00 6.0282300000000024e+00
ITEM: ATOMS id type x y z
1 1 8.56138 8.56138 4.23413
2 1 4.43874 4.43874 4.89903
3 2 1.18882 7.16976 4.12948
4 2 7.16976 1.18882 4.12948
5 2 5.77981 5.77981 4.96055
6 2 3.13728 3.13728 4.95033
ITEM: TIMESTEP
31
ITEM: NUMBER OF ATOMS
6
ITEM: BOX BOUNDS pp pp pp
0.0000000000000000e+00 8.5818200000000040e+00
0.0000000000000000e+00 8.5818200000000040e+00
0.0000000000000000e+00 6.0282300000000024e+00
ITEM: ATOMS id type x y z
1 1 8.55265 8.55265 4.2084
2 1 4.51237 4.51237 4.95926
3 2 1.13584 7.1006 4.19393
4 2 7.1006 1.13584 4.19393
5 2 5.81518 5.81518 4.86055
6 2 3.15916 3.15916 4.88692
ITEM: TIMESTEP
32
ITEM: NUMBER OF ATOMS
6
ITEM: BOX BOUNDS pp pp pp
0.0000000000000000e+00 8.5818200000000040e+00
0.0000000000000000e+00 8.5818200000000040e+00
0.0000000000000000e+00 6.0282300000000024e+00
ITEM: ATOMS id type x y z
1 1 8.54236 8.54236 4.18355
2 1 4.56853 4.56853 5.01671
3 2 1.07461 7.03349 4.25859
4 2 7.03349 1.07461 4.25859
5 2 5.85728 5.85728 4.76055
6 2 3.19953 3.19953 4.82501
ITEM: TIMESTEP
33
ITEM: NUMBER OF ATOMS
6
ITEM: BOX BOUNDS pp pp pp
0.0000000000000000e+00 8.5818200000000040e+00
0.0000000000000000e+00 8.5818200000000040e+00
0.0000000000000000e+00 6.0282300000000024e+00
ITEM: ATOMS id type x y z
1 1 8.52574 8.52574 4.1625
2 1 4.57847 4.57847 5.06502
3 2 0.986756 6.97824 4.32249
4 2 6.97824 0.986756 4.32249
5 2 5.91957 5.91957 4.66055
6 2 3.28702 3.28702 4.76996
ITEM: TIMESTEP
34
ITEM: NUMBER OF ATOMS
6
ITEM: BOX BOUNDS pp pp pp
0.0000000000000000e+00 8.5818200000000040e+00
0.0000000000000000e+00 8.5818200000000040e+00
0.0000000000000000e+00 6.0282300000000024e+00
ITEM: ATOMS id type x y z
1 1 8.50314 8.50314 4.15288
2 1 4.63431 4.63431 5.08279
3 2 0.886756 6.94476 4.36989
4 2 6.94476 0.886756 4.36989
5 2 5.94486 5.94486 4.59937
6 2 3.36197 3.36197 4.72817
ITEM: TIMESTEP
35
ITEM: NUMBER OF ATOMS
6
ITEM: BOX BOUNDS pp pp pp
0.0000000000000000e+00 8.5818200000000040e+00
0.0000000000000000e+00 8.5818200000000040e+00
0.0000000000000000e+00 6.0282300000000024e+00
ITEM: ATOMS id type x y z
1 1 8.49937 8.49937 4.15392
2 1 4.66661 4.66661 5.07476
3 2 0.8729 6.93397 4.37242
4 2 6.93397 0.8729 4.37242
5 2 5.94116 5.94116 4.60514
6 2 3.3618 3.3618 4.72433
ITEM: TIMESTEP
36
ITEM: NUMBER OF ATOMS
6
ITEM: BOX BOUNDS pp pp pp
0.0000000000000000e+00 8.5818200000000040e+00
0.0000000000000000e+00 8.5818200000000040e+00
0.0000000000000000e+00 6.0282300000000024e+00
ITEM: ATOMS id type x y z
1 1 8.49346 8.49346 4.1562
2 1 4.66029 4.66029 5.06315
3 2 0.85322 6.91796 4.37483
4 2 6.91796 0.85322 4.37483
5 2 5.96259 5.96259 4.60639
6 2 3.38828 3.38828 4.7276
ITEM: TIMESTEP
37
ITEM: NUMBER OF ATOMS
6
ITEM: BOX BOUNDS pp pp pp
0.0000000000000000e+00 8.5818200000000040e+00
0.0000000000000000e+00 8.5818200000000040e+00
0.0000000000000000e+00 6.0282300000000024e+00
ITEM: ATOMS id type x y z
1 1 8.462 8.462 4.16888
2 1 4.74069 4.74069 5.00802
3 2 0.75322 6.8434 4.3864
4 2 6.8434 0.75322 4.3864
5 2 6.02352 6.02352 4.62769
6 2 3.45297 3.45297 4.72562
ITEM: TIMESTEP
38
ITEM: NUMBER OF ATOMS
6
ITEM: BOX BOUNDS pp pp pp
0.0000000000000000e+00 8.5818200000000040e+00
0.0000000000000000e+00 8.5818200000000040e+00
0.0000000000000000e+00 6.0282300000000024e+00
ITEM: ATOMS id type x y z
1 1 8.44203 8.44203 4.17823
2 1 4.751 4.751 4.99864
3 2 0.712013 6.82581 4.38997
4 2 6.82581 0.712013 4.38997
5 2 6.07798 6.07798 4.6253
6 2 3.46697 3.46697 4.72089
ITEM: TIMESTEP
39
ITEM: NUMBER OF ATOMS
6
ITEM: BOX BOUNDS pp pp pp
0.0000000000000000e+00 8.5818200000000040e+00
0.0000000000000000e+00 8.5818200000000040e+00
0.0000000000000000e+00 6.0282300000000024e+00
ITEM: ATOMS id type x y z
1 1 8.42762 8.42762 4.18492
2 1 4.77207 4.77207 4.99001
3 2 0.684131 6.81167 4.39284
4 2 6.81167 0.684131 4.39284
5 2 6.1049 6.1049 4.62618
6 2 3.47541 3.47541 4.71622
ITEM: TIMESTEP
40
ITEM: NUMBER OF ATOMS
6
ITEM: BOX BOUNDS pp pp pp
0.0000000000000000e+00 8.5818200000000040e+00
0.0000000000000000e+00 8.5818200000000040e+00
0.0000000000000000e+00 6.0282300000000024e+00
ITEM: ATOMS id type x y z
1 1 8.42712 8.42712 4.18508
2 1 4.78045 4.78045 4.98677
3 2 0.685441 6.80708 4.39358
4 2 6.80708 0.685441 4.39358
5 2 6.0958 6.0958 4.62841
6 2 3.47991 3.47991 4.7156
ITEM: TIMESTEP
41
ITEM: NUMBER OF ATOMS
6
ITEM: BOX BOUNDS pp pp pp
0.0000000000000000e+00 8.5818200000000040e+00
0.0000000000000000e+00 8.5818200000000040e+00
0.0000000000000000e+00 6.0282300000000024e+00
ITEM: ATOMS id type x y z
1 1 8.42546 8.42546 4.18598
2 1 4.77964 4.77964 4.98398
3 2 0.687168 6.80247 4.3944
4 2 6.80247 0.687168 4.3944
5 2 6.09267 6.09267 4.6291
6 2 3.4884 3.4884 4.71514
ITEM: TIMESTEP
42
ITEM: NUMBER OF ATOMS
6
ITEM: BOX BOUNDS pp pp pp
0.0000000000000000e+00 8.5818200000000040e+00
0.0000000000000000e+00 8.5818200000000040e+00
0.0000000000000000e+00 6.0282300000000024e+00
ITEM: ATOMS id type x y z
1 1 8.42017 8.42017 4.18894
2 1 4.78533 4.78533 4.98236
3 2 0.688102 6.79948 4.39528
4 2 6.79948 0.688102 4.39528
5 2 6.09216 6.09216 4.62931
6 2 3.49056 3.49056 4.71183
ITEM: TIMESTEP
43
ITEM: NUMBER OF ATOMS
6
ITEM: BOX BOUNDS pp pp pp
0.0000000000000000e+00 8.5818200000000040e+00
0.0000000000000000e+00 8.5818200000000040e+00
0.0000000000000000e+00 6.0282300000000024e+00
ITEM: ATOMS id type x y z
1 1 8.35565 8.35565 4.22547
2 1 4.81039 4.81039 4.96827
3 2 0.702221 6.76836 4.40518
4 2 6.76836 0.702221 4.40518
5 2 6.11414 6.11414 4.6244
6 2 3.52504 3.52504 4.6745
ITEM: TIMESTEP
44
ITEM: NUMBER OF ATOMS
6
ITEM: BOX BOUNDS pp pp pp
0.0000000000000000e+00 8.5818200000000040e+00
0.0000000000000000e+00 8.5818200000000040e+00
0.0000000000000000e+00 6.0282300000000024e+00
ITEM: ATOMS id type x y z
1 1 8.25565 8.25565 4.28163
2 1 4.82566 4.82566 4.95572
3 2 0.722776 6.74177 4.41749
4 2 6.74177 0.722776 4.41749
5 2 6.16678 6.16678 4.61163
6 2 3.56317 3.56317 4.61904
ITEM: TIMESTEP
45
ITEM: NUMBER OF ATOMS
6
ITEM: BOX BOUNDS pp pp pp
0.0000000000000000e+00 8.5818200000000040e+00
0.0000000000000000e+00 8.5818200000000040e+00
0.0000000000000000e+00 6.0282300000000024e+00
ITEM: ATOMS id type x y z
1 1 8.15565 8.15565 4.33631
2 1 4.85226 4.85226 4.94644
3 2 0.742244 6.72766 4.42811
4 2 6.72766 0.742244 4.42811
5 2 6.21167 6.21167 4.60023
6 2 3.58633 3.58633 4.5638
ITEM: TIMESTEP
46
ITEM: NUMBER OF ATOMS
6
ITEM: BOX BOUNDS pp pp pp
0.0000000000000000e+00 8.5818200000000040e+00
0.0000000000000000e+00 8.5818200000000040e+00
0.0000000000000000e+00 6.0282300000000024e+00
ITEM: ATOMS id type x y z
1 1 8.12517 8.12517 4.34805
2 1 4.87464 4.87464 4.94833
3 2 0.747759 6.75812 4.42712
4 2 6.75812 0.747759 4.42712
5 2 6.1983 6.1983 4.60068
6 2 3.57181 3.57181 4.55171
ITEM: TIMESTEP
47
ITEM: NUMBER OF ATOMS
6
ITEM: BOX BOUNDS pp pp pp
0.0000000000000000e+00 8.5818200000000040e+00
0.0000000000000000e+00 8.5818200000000040e+00
0.0000000000000000e+00 6.0282300000000024e+00
ITEM: ATOMS id type x y z
1 1 8.02517 8.02517 4.38096
2 1 4.86081 4.86081 4.9501
3 2 0.801114 6.84295 4.42354
4 2 6.84295 0.801114 4.42354
5 2 6.17878 6.17878 4.59386
6 2 3.56697 3.56697 4.53099
ITEM: TIMESTEP
48
ITEM: NUMBER OF ATOMS
6
ITEM: BOX BOUNDS pp pp pp
0.0000000000000000e+00 8.5818200000000040e+00
0.0000000000000000e+00 8.5818200000000040e+00
0.0000000000000000e+00 6.0282300000000024e+00
ITEM: ATOMS id type x y z
1 1 7.98189 7.98189 4.39153
2 1 4.82914 4.82914 4.95101
3 2 0.852824 6.85339 4.4227
4 2 6.85339 0.852824 4.4227
5 2 6.18456 6.18456 4.58747
6 2 3.574 3.574 4.5276
ITEM: TIMESTEP
49
ITEM: NUMBER OF ATOMS
6
ITEM: BOX BOUNDS pp pp pp
0.0000000000000000e+00 8.5818200000000040e+00
0.0000000000000000e+00 8.5818200000000040e+00
0.0000000000000000e+00 6.0282300000000024e+00
ITEM: ATOMS id type x y z
1 1 7.94776 7.94776 4.39982
2 1 4.83192 4.83192 4.95591
3 2 0.890393 6.86793 4.42178
4 2 6.86793 0.890393 4.42178
5 2 6.17875 6.17875 4.58473
6 2 3.55905 3.55905 4.51898
ITEM: TIMESTEP
50
ITEM: NUMBER OF ATOMS
6
ITEM: BOX BOUNDS pp pp pp
0.0000000000000000e+00 8.5818200000000040e+00
0.0000000000000000e+00 8.5818200000000040e+00
0.0000000000000000e+00 6.0282300000000024e+00
ITEM: ATOMS id type x y z
1 1 7.91368 7.91368 4.41244
2 1 4.83477 4.83477 4.9581
3 2 0.896969 6.92463 4.4198
4 2 6.92463 0.896969 4.4198
5 2 6.15925 6.15925 4.58265
6 2 3.54651 3.54651 4.5102
ITEM: TIMESTEP
51
ITEM: NUMBER OF ATOMS
6
ITEM: BOX BOUNDS pp pp pp
0.0000000000000000e+00 8.5818200000000040e+00
0.0000000000000000e+00 8.5818200000000040e+00
0.0000000000000000e+00 6.0282300000000024e+00
ITEM: ATOMS id type x y z
1 1 7.89628 7.89628 4.4195
2 1 4.81818 4.81818 4.95778
3 2 0.900757 6.95474 4.41885
4 2 6.95474 0.900757 4.41885
5 2 6.15703 6.15703 4.5792
6 2 3.54882 3.54882 4.5088
ITEM: TIMESTEP
52
ITEM: NUMBER OF ATOMS
6
ITEM: BOX BOUNDS pp pp pp
0.0000000000000000e+00 8.5818200000000040e+00
0.0000000000000000e+00 8.5818200000000040e+00
0.0000000000000000e+00 6.0282300000000024e+00
ITEM: ATOMS id type x y z
1 1 7.89253 7.89253 4.4215
2 1 4.81526 4.81526 4.95817
3 2 0.908675 6.9536 4.41906
4 2 6.9536 0.908675 4.41906
5 2 6.15985 6.15985 4.57781
6 2 3.54588 3.54588 4.50739
ITEM: TIMESTEP
53
ITEM: NUMBER OF ATOMS
6
ITEM: BOX BOUNDS pp pp pp
0.0000000000000000e+00 8.5818200000000040e+00
0.0000000000000000e+00 8.5818200000000040e+00
0.0000000000000000e+00 6.0282300000000024e+00
ITEM: ATOMS id type x y z
1 1 7.89155 7.89155 4.42336
2 1 4.81611 4.81611 4.95756
3 2 0.910751 6.95471 4.41936
4 2 6.95471 0.910751 4.41936
5 2 6.15905 6.15905 4.57736
6 2 3.54362 3.54362 4.506
ITEM: TIMESTEP
54
ITEM: NUMBER OF ATOMS
6
ITEM: BOX BOUNDS pp pp pp
0.0000000000000000e+00 8.5818200000000040e+00
0.0000000000000000e+00 8.5818200000000040e+00
0.0000000000000000e+00 6.0282300000000024e+00
ITEM: ATOMS id type x y z
1 1 7.89231 7.89231 4.42414
2 1 4.81538 4.81538 4.95647
3 2 0.909016 6.95631 4.41955
4 2 6.95631 0.909016 4.41955
5 2 6.15811 6.15811 4.5773
6 2 3.54468 3.54468 4.506
ITEM: TIMESTEP
55
ITEM: NUMBER OF ATOMS
6
ITEM: BOX BOUNDS pp pp pp
0.0000000000000000e+00 8.5818200000000040e+00
0.0000000000000000e+00 8.5818200000000040e+00
0.0000000000000000e+00 6.0282300000000024e+00
ITEM: ATOMS id type x y z
1 1 7.89269 7.89269 4.42565
2 1 4.81574 4.81574 4.95516
3 2 0.908316 6.9576 4.41992
4 2 6.9576 0.908316 4.41992
5 2 6.15714 6.15714 4.5771
6 2 3.54432 3.54432 4.50525
ITEM: TIMESTEP
56
ITEM: NUMBER OF ATOMS
6
ITEM: BOX BOUNDS pp pp pp
0.0000000000000000e+00 8.5818200000000040e+00
0.0000000000000000e+00 8.5818200000000040e+00
0.0000000000000000e+00 6.0282300000000024e+00
ITEM: ATOMS id type x y z
1 1 7.89281 7.89281 4.43047
2 1 4.81356 4.81356 4.95105
3 2 0.908807 6.95983 4.42115
4 2 6.95983 0.908807 4.42115
5 2 6.15668 6.15668 4.57588
6 2 3.54412 3.54412 4.50329
ITEM: TIMESTEP
57
ITEM: NUMBER OF ATOMS
6
ITEM: BOX BOUNDS pp pp pp
0.0000000000000000e+00 8.5818200000000040e+00
0.0000000000000000e+00 8.5818200000000040e+00
0.0000000000000000e+00 6.0282300000000024e+00
ITEM: ATOMS id type x y z
1 1 7.89156 7.89156 4.45721
2 1 4.80985 4.80985 4.92945
3 2 0.914975 6.9688 4.42827
4 2 6.9688 0.914975 4.42827
5 2 6.1538 6.1538 4.56965
6 2 3.53682 3.53682 4.49015
ITEM: TIMESTEP
58
ITEM: NUMBER OF ATOMS
6
ITEM: BOX BOUNDS pp pp pp
0.0000000000000000e+00 8.5818200000000040e+00
0.0000000000000000e+00 8.5818200000000040e+00
0.0000000000000000e+00 6.0282300000000024e+00
ITEM: ATOMS id type x y z
1 1 7.88671 7.88671 4.49741
2 1 4.81041 4.81041 4.88546
3 2 0.915285 6.96904 4.44431
4 2 6.96904 0.915285 4.44431
5 2 6.15793 6.15793 4.5615
6 2 3.53642 3.53642 4.47
ITEM: TIMESTEP
59
ITEM: NUMBER OF ATOMS
6
ITEM: BOX BOUNDS pp pp pp
0.0000000000000000e+00 8.5818200000000040e+00
0.0000000000000000e+00 8.5818200000000040e+00
0.0000000000000000e+00 6.0282300000000024e+00
ITEM: ATOMS id type x y z
1 1 7.88716 7.88716 4.50785
2 1 4.81208 4.81208 4.87354
3 2 0.913697 6.96945 4.44938
4 2 6.96945 0.913697 4.44938
5 2 6.15869 6.15869 4.55912
6 2 3.53472 3.53472 4.46373
ITEM: TIMESTEP
60
ITEM: NUMBER OF ATOMS
6
ITEM: BOX BOUNDS pp pp pp
0.0000000000000000e+00 8.5818200000000040e+00
0.0000000000000000e+00 8.5818200000000040e+00
0.0000000000000000e+00 6.0282300000000024e+00
ITEM: ATOMS id type x y z
1 1 7.88977 7.88977 4.51631
2 1 4.8108 4.8108 4.86248
3 2 0.911943 6.96942 4.45494
4 2 6.96942 0.911943 4.45494
5 2 6.16001 6.16001 4.5563
6 2 3.53386 3.53386 4.45803
ITEM: TIMESTEP
61
ITEM: NUMBER OF ATOMS
6
ITEM: BOX BOUNDS pp pp pp
0.0000000000000000e+00 8.5818200000000040e+00
0.0000000000000000e+00 8.5818200000000040e+00
0.0000000000000000e+00 6.0282300000000024e+00
ITEM: ATOMS id type x y z
1 1 7.89607 7.89607 4.52748
2 1 4.80926 4.80926 4.84443
3 2 0.914737 6.96517 4.46613
4 2 6.96517 0.914737 4.46613
5 2 6.15927 6.15927 4.55097
6 2 3.53129 3.53129 4.44785
ITEM: TIMESTEP
62
ITEM: NUMBER OF ATOMS
6
ITEM: BOX BOUNDS pp pp pp
0.0000000000000000e+00 8.5818200000000040e+00
0.0000000000000000e+00 8.5818200000000040e+00
0.0000000000000000e+00 6.0282300000000024e+00
ITEM: ATOMS id type x y z
1 1 7.89743 7.89743 4.52813
2 1 4.80982 4.80982 4.84124
3 2 0.914227 6.96507 4.46892
4 2 6.96507 0.914227 4.46892
5 2 6.15848 6.15848 4.54987
6 2 3.53077 3.53077 4.44593
ITEM: TIMESTEP
63
ITEM: NUMBER OF ATOMS
6
ITEM: BOX BOUNDS pp pp pp
0.0000000000000000e+00 8.5818200000000040e+00
0.0000000000000000e+00 8.5818200000000040e+00
0.0000000000000000e+00 6.0282300000000024e+00
ITEM: ATOMS id type x y z
1 1 7.89942 7.89942 4.52776
2 1 4.80886 4.80886 4.83532
3 2 0.913347 6.96498 4.47496
4 2 6.96498 0.913347 4.47496
5 2 6.15822 6.15822 4.54727
6 2 3.53097 3.53097 4.44274
ITEM: TIMESTEP
64
ITEM: NUMBER OF ATOMS
6
ITEM: BOX BOUNDS pp pp pp
0.0000000000000000e+00 8.5818200000000040e+00
0.0000000000000000e+00 8.5818200000000040e+00
0.0000000000000000e+00 6.0282300000000024e+00
ITEM: ATOMS id type x y z
1 1 7.9016 7.9016 4.52484
2 1 4.80805 4.80805 4.82062
3 2 0.91466 6.96283 4.4921
4 2 6.96283 0.91466 4.4921
5 2 6.15934 6.15934 4.53953
6 2 3.52933 3.52933 4.43381
ITEM: TIMESTEP
65
ITEM: NUMBER OF ATOMS
6
ITEM: BOX BOUNDS pp pp pp
0.0000000000000000e+00 8.5818200000000040e+00
0.0000000000000000e+00 8.5818200000000040e+00
0.0000000000000000e+00 6.0282300000000024e+00
ITEM: ATOMS id type x y z
1 1 7.90104 7.90104 4.52417
2 1 4.80932 4.80932 4.81866
3 2 0.914952 6.96272 4.4947
4 2 6.96272 0.914952 4.4947
5 2 6.15899 6.15899 4.53821
6 2 3.52878 3.52878 4.43256
ITEM: TIMESTEP
66
ITEM: NUMBER OF ATOMS
6
ITEM: BOX BOUNDS pp pp pp
0.0000000000000000e+00 8.5818200000000040e+00
0.0000000000000000e+00 8.5818200000000040e+00
0.0000000000000000e+00 6.0282300000000024e+00
ITEM: ATOMS id type x y z
1 1 7.89836 7.89836 4.52213
2 1 4.81039 4.81039 4.81391
3 2 0.915399 6.96329 4.50117
4 2 6.96329 0.915399 4.50117
5 2 6.15895 6.15895 4.53412
6 2 3.52941 3.52941 4.4305
ITEM: TIMESTEP
67
ITEM: NUMBER OF ATOMS
6
ITEM: BOX BOUNDS pp pp pp
0.0000000000000000e+00 8.5818200000000040e+00
0.0000000000000000e+00 8.5818200000000040e+00
0.0000000000000000e+00 6.0282300000000024e+00
ITEM: ATOMS id type x y z
1 1 7.89749 7.89749 4.52141
2 1 4.80949 4.80949 4.81244
3 2 0.915159 6.96394 4.50334
4 2 6.96394 0.915159 4.50334
5 2 6.15958 6.15958 4.53231
6 2 3.53014 3.53014 4.43015
ITEM: TIMESTEP
68
ITEM: NUMBER OF ATOMS
6
ITEM: BOX BOUNDS pp pp pp
0.0000000000000000e+00 8.5818200000000040e+00
0.0000000000000000e+00 8.5818200000000040e+00
0.0000000000000000e+00 6.0282300000000024e+00
ITEM: ATOMS id type x y z
1 1 7.89692 7.89692 4.52082
2 1 4.80964 4.80964 4.81206
3 2 0.914231 6.96541 4.50512
4 2 6.96541 0.914231 4.50512
5 2 6.16009 6.16009 4.52983
6 2 3.52951 3.52951 4.43004
ITEM: TIMESTEP
69
ITEM: NUMBER OF ATOMS
6
ITEM: BOX BOUNDS pp pp pp
0.0000000000000000e+00 8.5818200000000040e+00
0.0000000000000000e+00 8.5818200000000040e+00
0.0000000000000000e+00 6.0282300000000024e+00
ITEM: ATOMS id type x y z
1 1 7.89476 7.89476 4.51972
2 1 4.8104 4.8104 4.8119
3 2 0.915356 6.9675 4.50912
4 2 6.96749 0.915358 4.50912
5 2 6.15932 6.15932 4.52217
6 2 3.52847 3.52847 4.43097
ITEM: TIMESTEP
70
ITEM: NUMBER OF ATOMS
6
ITEM: BOX BOUNDS pp pp pp
0.0000000000000000e+00 8.5818200000000040e+00
0.0000000000000000e+00 8.5818200000000040e+00
0.0000000000000000e+00 6.0282300000000024e+00
ITEM: ATOMS id type x y z
1 1 7.89249 7.8925 4.51855
2 1 4.80966 4.80966 4.81153
3 2 0.916781 6.96962 4.51366
4 2 6.96962 0.916781 4.51366
5 2 6.15859 6.15859 4.5129
6 2 3.52865 3.52865 4.43269
ITEM: TIMESTEP
71
ITEM: NUMBER OF ATOMS
6
ITEM: BOX BOUNDS pp pp pp
0.0000000000000000e+00 8.5818200000000040e+00
0.0000000000000000e+00 8.5818200000000040e+00
0.0000000000000000e+00 6.0282300000000024e+00
ITEM: ATOMS id type x y z
1 1 7.89314 7.89314 4.51847
2 1 4.80974 4.80974 4.81128
3 2 0.915624 6.96992 4.51509
4 2 6.96992 0.915626 4.51509
5 2 6.1579 6.1579 4.50889
6 2 3.52948 3.52948 4.43417
ITEM: TIMESTEP
72
ITEM: NUMBER OF ATOMS
6
ITEM: BOX BOUNDS pp pp pp
0.0000000000000000e+00 8.5818200000000040e+00
0.0000000000000000e+00 8.5818200000000040e+00
0.0000000000000000e+00 6.0282300000000024e+00
ITEM: ATOMS id type x y z
1 1 7.89316 7.89316 4.51852
2 1 4.81004 4.81004 4.81137
3 2 0.915808 6.96957 4.51512
4 2 6.96957 0.915808 4.51512
5 2 6.15804 6.15804 4.50862
6 2 3.52919 3.52919 4.43426
ITEM: TIMESTEP
73
ITEM: NUMBER OF ATOMS
6
ITEM: BOX BOUNDS pp pp pp
0.0000000000000000e+00 8.5818200000000040e+00
0.0000000000000000e+00 8.5818200000000040e+00
0.0000000000000000e+00 6.0282300000000024e+00
ITEM: ATOMS id type x y z
1 1 7.89356 7.89356 4.51881
2 1 4.81039 4.81039 4.81163
3 2 0.916278 6.96785 4.5153
4 2 6.96784 0.91628 4.5153
5 2 6.15894 6.15894 4.50675
6 2 3.52879 3.52879 4.43521
ITEM: TIMESTEP
74
ITEM: NUMBER OF ATOMS
6
ITEM: BOX BOUNDS pp pp pp
0.0000000000000000e+00 8.5818200000000040e+00
0.0000000000000000e+00 8.5818200000000040e+00
0.0000000000000000e+00 6.0282300000000024e+00
ITEM: ATOMS id type x y z
1 1 7.89797 7.898 4.52058
2 1 4.8124 4.8124 4.81164
3 2 0.913567 6.96129 4.51654
4 2 6.96131 0.913549 4.51654
5 2 6.16013 6.16012 4.49528