ITEM: TIMESTEP
0
ITEM: NUMBER OF ATOMS
6
ITEM: BOX BOUNDS pp pp pp
0.0000000000000000e+00 5.0780000000000003e+00
0.0000000000000000e+00 5.0780000000000003e+00
0.0000000000000000e+00 3.5670000000000002e+00
ITEM: ATOMS id type x y z
1 1 0 0 0
2 1 2.56734 2.56734 1.81821
3 2 0.961926 4.17274 1.81821
4 2 4.17274 0.961926 1.81821
5 2 3.52926 3.52926 0
6 2 1.60541 1.60541 0
ITEM: TIMESTEP
1
ITEM: NUMBER OF ATOMS
6
ITEM: BOX BOUNDS pp pp pp
0.0000000000000000e+00 5.0780000000000003e+00
0.0000000000000000e+00 5.0780000000000003e+00
0.0000000000000000e+00 3.5670000000000002e+00
ITEM: ATOMS id type x y z
1 1 0.01357 0.01357 0.0290733
2 1 2.5675 2.5675 1.7918
3 2 1.06193 4.08104 1.79907
4 2 4.08104 1.06193 1.79907
5 2 3.56273 3.56273 0.0176803
6 2 1.54991 1.54991 0.0179341
ITEM: TIMESTEP
2
ITEM: NUMBER OF ATOMS
6
ITEM: BOX BOUNDS pp pp pp
0.0000000000000000e+00 5.0780000000000003e+00
0.0000000000000000e+00 5.0780000000000003e+00
0.0000000000000000e+00 3.5670000000000002e+00
ITEM: ATOMS id type x y z
1 1 0.00926013 0.00926013 0.0319123
2 1 2.55624 2.55624 1.78984
3 2 1.06504 4.08285 1.81029
4 2 4.08285 1.06504 1.81029
5 2 3.61273 3.61273 0.00552806
6 2 1.51056 1.51056 0.00675855
ITEM: TIMESTEP
3
ITEM: NUMBER OF ATOMS
6
ITEM: BOX BOUNDS pp pp pp
0.0000000000000000e+00 5.0780000000000003e+00
0.0000000000000000e+00 5.0780000000000003e+00
0.0000000000000000e+00 3.5670000000000002e+00
ITEM: ATOMS id type x y z
1 1 -0.0465098 -0.0465098 0.073606
2 1 2.53142 2.53142 1.75378
3 2 1.16504 4.01637 1.83521
4 2 4.01637 1.16504 1.83521
5 2 3.69121 3.69121 -0.0243577
6 2 1.47915 1.47915 -0.0188234
ITEM: TIMESTEP
4
ITEM: NUMBER OF ATOMS
6
ITEM: BOX BOUNDS pp pp pp
0.0000000000000000e+00 5.0780000000000003e+00
0.0000000000000000e+00 5.0780000000000003e+00
0.0000000000000000e+00 3.5670000000000002e+00
ITEM: ATOMS id type x y z
1 1 -0.0742478 -0.0742478 0.0869604
2 1 2.52927 2.52927 1.74206
3 2 1.20218 3.9935 1.84076
4 2 3.9935 1.20218 1.84076
5 2 3.72045 3.72045 -0.0309913
6 2 1.46553 1.46553 -0.0249301
ITEM: TIMESTEP
5
ITEM: NUMBER OF ATOMS
6
ITEM: BOX BOUNDS pp pp pp
0.0000000000000000e+00 5.0780000000000003e+00
0.0000000000000000e+00 5.0780000000000003e+00
0.0000000000000000e+00 3.5670000000000002e+00
ITEM: ATOMS id type x y z
1 1 -0.0852405 -0.0852405 0.105996
2 1 2.53664 2.53664 1.72916
3 2 1.25766 3.96039 1.84299
4 2 3.96039 1.25766 1.84299
5 2 3.72826 3.72826 -0.037094
6 2 1.43897 1.43897 -0.0294148
ITEM: TIMESTEP
6
ITEM: NUMBER OF ATOMS
6
ITEM: BOX BOUNDS pp pp pp
0.0000000000000000e+00 5.0780000000000003e+00
0.0000000000000000e+00 5.0780000000000003e+00
0.0000000000000000e+00 3.5670000000000002e+00
ITEM: ATOMS id type x y z
1 1 -0.0732259 -0.0732259 0.112558
2 1 2.54029 2.54029 1.72609
3 2 1.26551 3.95737 1.84212
4 2 3.95737 1.26551 1.84212
5 2 3.7179 3.7179 -0.0381113
6 2 1.42882 1.42882 -0.0301532
ITEM: TIMESTEP
7
ITEM: NUMBER OF ATOMS
6
ITEM: BOX BOUNDS pp pp pp
0.0000000000000000e+00 5.0780000000000003e+00
0.0000000000000000e+00 5.0780000000000003e+00
0.0000000000000000e+00 3.5670000000000002e+00
ITEM: ATOMS id type x y z
1 1 -0.032308 -0.032308 0.17748
2 1 2.5671 2.5671 1.69019
3 2 1.28992 3.95287 1.83208
4 2 3.95287 1.28992 1.83208
5 2 3.73027 3.73027 -0.0323825
6 2 1.32882 1.32882 -0.0448243
ITEM: TIMESTEP
8
ITEM: NUMBER OF ATOMS
6
ITEM: BOX BOUNDS pp pp pp
0.0000000000000000e+00 5.0780000000000003e+00
0.0000000000000000e+00 5.0780000000000003e+00
0.0000000000000000e+00 3.5670000000000002e+00
ITEM: ATOMS id type x y z
1 1 -0.024501 -0.024501 0.18111
2 1 2.56726 2.56726 1.68655
3 2 1.29158 3.94989 1.8327
4 2 3.94989 1.29158 1.8327
5 2 3.73438 3.73438 -0.0324112
6 2 1.31807 1.31807 -0.0460282
ITEM: TIMESTEP
9
ITEM: NUMBER OF ATOMS
6
ITEM: BOX BOUNDS pp pp pp
0.0000000000000000e+00 5.0780000000000003e+00
0.0000000000000000e+00 5.0780000000000003e+00
0.0000000000000000e+00 3.5670000000000002e+00
ITEM: ATOMS id type x y z
1 1 0.00781534 0.00781534 0.150436
2 1 2.53419 2.53419 1.6814
3 2 1.28054 3.9161 1.85407
4 2 3.9161 1.28054 1.85407
5 2 3.77195 3.77195 -0.0398154
6 2 1.32608 1.32608 -0.0455451
ITEM: TIMESTEP
10
ITEM: NUMBER OF ATOMS
6
ITEM: BOX BOUNDS pp pp pp
0.0000000000000000e+00 5.0780000000000003e+00
0.0000000000000000e+00 5.0780000000000003e+00
0.0000000000000000e+00 3.5670000000000002e+00
ITEM: ATOMS id type x y z
1 1 0.0175089 0.0175089 0.147478
2 1 2.52475 2.52475 1.67559
3 2 1.26556 3.91491 1.85724
4 2 3.91491 1.26556 1.85724
5 2 3.76938 3.76938 -0.03967
6 2 1.34456 1.34456 -0.0432494
ITEM: TIMESTEP
11
ITEM: NUMBER OF ATOMS
6
ITEM: BOX BOUNDS pp pp pp
0.0000000000000000e+00 5.0780000000000003e+00
0.0000000000000000e+00 5.0780000000000003e+00
0.0000000000000000e+00 3.5670000000000002e+00
ITEM: ATOMS id type x y z
1 1 0.0211941 0.0211941 0.147376
2 1 2.52368 2.52368 1.67274
3 2 1.26106 3.91176 1.85736
4 2 3.91176 1.26106 1.85736
5 2 3.77368 3.77368 -0.0383472
6 2 1.3453 1.3453 -0.0418669
ITEM: TIMESTEP
12
ITEM: NUMBER OF ATOMS
6
ITEM: BOX BOUNDS pp pp pp
0.0000000000000000e+00 5.0780000000000003e+00
0.0000000000000000e+00 5.0780000000000003e+00
0.0000000000000000e+00 3.5670000000000002e+00
ITEM: ATOMS id type x y z
1 1 0.0209445 0.0209445 0.148143
2 1 2.5259 2.5259 1.67215
3 2 1.26225 3.90819 1.85722
4 2 3.90819 1.26225 1.85722
5 2 3.7751 3.7751 -0.0379899
6 2 1.34428 1.34428 -0.0421334
ITEM: TIMESTEP
13
ITEM: NUMBER OF ATOMS
6
ITEM: BOX BOUNDS pp pp pp
0.0000000000000000e+00 5.0780000000000003e+00
0.0000000000000000e+00 5.0780000000000003e+00
0.0000000000000000e+00 3.5670000000000002e+00
ITEM: ATOMS id type x y z
1 1 0.0213939 0.0213939 0.152487
2 1 2.53638 2.53638 1.66871
3 2 1.25719 3.90497 1.85788
4 2 3.90497 1.25719 1.85788
5 2 3.77462 3.77462 -0.038074
6 2 1.34213 1.34213 -0.0442604
ITEM: TIMESTEP
14
ITEM: NUMBER OF ATOMS
6
ITEM: BOX BOUNDS pp pp pp
0.0000000000000000e+00 5.0780000000000003e+00
0.0000000000000000e+00 5.0780000000000003e+00
0.0000000000000000e+00 3.5670000000000002e+00
ITEM: ATOMS id type x y z
1 1 0.0190864 0.0190864 0.156477
2 1 2.54572 2.54572 1.66514
3 2 1.25252 3.90056 1.85912
4 2 3.90056 1.25252 1.85912
5 2 3.77492 3.77492 -0.0387772
6 2 1.34387 1.34387 -0.0464605
ITEM: TIMESTEP
15
ITEM: NUMBER OF ATOMS
6
ITEM: BOX BOUNDS pp pp pp
0.0000000000000000e+00 5.0780000000000003e+00
0.0000000000000000e+00 5.0780000000000003e+00
0.0000000000000000e+00 3.5670000000000002e+00
ITEM: ATOMS id type x y z
1 1 0.0205313 0.0205313 0.159238
2 1 2.55259 2.55259 1.66167
3 2 1.24869 3.89534 1.86123
4 2 3.89534 1.24869 1.86123
5 2 3.77442 3.77442 -0.0408956
6 2 1.34511 1.34511 -0.0478433
ITEM: TIMESTEP
16
ITEM: NUMBER OF ATOMS
6
ITEM: BOX BOUNDS pp pp pp
0.0000000000000000e+00 5.0780000000000003e+00
0.0000000000000000e+00 5.0780000000000003e+00
0.0000000000000000e+00 3.5670000000000002e+00
ITEM: ATOMS id type x y z
1 1 0.0218862 0.0218862 0.160167
2 1 2.55466 2.55466 1.65951
3 2 1.24587 3.89304 1.86277
4 2 3.89304 1.24587 1.86277
5 2 3.77635 3.77635 -0.042688
6 2 1.34486 1.34486 -0.0479169
ITEM: TIMESTEP
17
ITEM: NUMBER OF ATOMS
6
ITEM: BOX BOUNDS pp pp pp
0.0000000000000000e+00 5.0780000000000003e+00
0.0000000000000000e+00 5.0780000000000003e+00
0.0000000000000000e+00 3.5670000000000002e+00
ITEM: ATOMS id type x y z
1 1 0.0218696 0.0218696 0.160765
2 1 2.55446 2.55446 1.65825
3 2 1.24523 3.89172 1.86338
4 2 3.89172 1.24523 1.86338
5 2 3.7773 3.7773 -0.0436971
6 2 1.3461 1.3461 -0.0474592
ITEM: TIMESTEP
18
ITEM: NUMBER OF ATOMS
6
ITEM: BOX BOUNDS pp pp pp
0.0000000000000000e+00 5.0780000000000003e+00
0.0000000000000000e+00 5.0780000000000003e+00
0.0000000000000000e+00 3.5670000000000002e+00
ITEM: ATOMS id type x y z
1 1 0.0227862 0.0227862 0.161012
2 1 2.55452 2.55452 1.65787
3 2 1.24499 3.8917 1.86352
4 2 3.8917 1.24499 1.86352
5 2 3.77702 3.77702 -0.0440002
6 2 1.34566 1.34566 -0.047312
ITEM: TIMESTEP
19
ITEM: NUMBER OF ATOMS
6
ITEM: BOX BOUNDS pp pp pp
0.0000000000000000e+00 5.0780000000000003e+00
0.0000000000000000e+00 5.0780000000000003e+00
0.0000000000000000e+00 3.5670000000000002e+00
ITEM: ATOMS id type x y z
1 1 0.023571 0.023571 0.16248
2 1 2.55465 2.55465 1.6558
3 2 1.24394 3.89103 1.86433
4 2 3.89103 1.24394 1.86433
5 2 3.77762 3.77762 -0.0454356
6 2 1.34587 1.34587 -0.0468795
ITEM: TIMESTEP
20
ITEM: NUMBER OF ATOMS
6
ITEM: BOX BOUNDS pp pp pp
0.0000000000000000e+00 5.0780000000000003e+00
0.0000000000000000e+00 5.0780000000000003e+00
0.0000000000000000e+00 3.5670000000000002e+00
ITEM: ATOMS id type x y z
1 1 0.0227579 0.0227579 0.16368
2 1 2.55492 2.55492 1.65438
3 2 1.24374 3.89007 1.86494
4 2 3.89007 1.24374 1.86494
5 2 3.77834 3.77834 -0.0463645
6 2 1.34685 1.34685 -0.0469472
ITEM: TIMESTEP
21
ITEM: NUMBER OF ATOMS
6
ITEM: BOX BOUNDS pp pp pp
0.0000000000000000e+00 5.0780000000000003e+00
0.0000000000000000e+00 5.0780000000000003e+00
0.0000000000000000e+00 3.5670000000000002e+00
ITEM: ATOMS id type x y z
1 1 0.0234648 0.0234648 0.16386
2 1 2.55514 2.55514 1.65425
3 2 1.24374 3.89012 1.86501
4 2 3.89012 1.24374 1.86501
5 2 3.77792 3.77792 -0.0464686
6 2 1.34629 1.34629 -0.0470484
ITEM: TIMESTEP
22
ITEM: NUMBER OF ATOMS
6
ITEM: BOX BOUNDS pp pp pp
0.0000000000000000e+00 5.0780000000000003e+00
0.0000000000000000e+00 5.0780000000000003e+00
0.0000000000000000e+00 3.5670000000000002e+00
ITEM: ATOMS id type x y z
1 1 0.0230882 0.0230882 0.165542
2 1 2.5566 2.5566 1.653
3 2 1.24366 3.89 1.86568
4 2 3.89 1.24366 1.86568
5 2 3.77781 3.77781 -0.046967
6 2 1.34553 1.34553 -0.0483262
ITEM: TIMESTEP
23
ITEM: NUMBER OF ATOMS
6
ITEM: BOX BOUNDS pp pp pp
0.0000000000000000e+00 5.0780000000000003e+00
0.0000000000000000e+00 5.0780000000000003e+00
0.0000000000000000e+00 3.5670000000000002e+00
ITEM: ATOMS id type x y z
1 1 0.0228236 0.0228236 0.165906
2 1 2.55679 2.55679 1.65269
3 2 1.24364 3.88985 1.86581
4 2 3.88985 1.24364 1.86581
5 2 3.77785 3.77785 -0.0470644
6 2 1.34572 1.34572 -0.0485259
ITEM: TIMESTEP
24
ITEM: NUMBER OF ATOMS
6
ITEM: BOX BOUNDS pp pp pp
0.0000000000000000e+00 5.0780000000000003e+00
0.0000000000000000e+00 5.0780000000000003e+00
0.0000000000000000e+00 3.5670000000000002e+00
ITEM: ATOMS id type x y z
1 1 0.0229508 0.0229508 0.166389
2 1 2.55676 2.55676 1.65209
3 2 1.24347 3.88945 1.86594
4 2 3.88945 1.24347 1.86594
5 2 3.77781 3.77781 -0.0472526
6 2 1.34623 1.34623 -0.0484913
ITEM: TIMESTEP
25
ITEM: NUMBER OF ATOMS
6
ITEM: BOX BOUNDS pp pp pp
0.0000000000000000e+00 5.0780000000000003e+00
0.0000000000000000e+00 5.0780000000000003e+00
0.0000000000000000e+00 3.5670000000000002e+00
ITEM: ATOMS id type x y z
1 1 0.0235116 0.0235116 0.167355
2 1 2.55684 2.55684 1.65085
3 2 1.24286 3.88899 1.86633
4 2 3.88899 1.24286 1.86633
5 2 3.77814 3.77814 -0.0477277
6 2 1.34634 1.34634 -0.0485117
ITEM: TIMESTEP
26
ITEM: NUMBER OF ATOMS
6
ITEM: BOX BOUNDS pp pp pp
0.0000000000000000e+00 5.0780000000000003e+00
0.0000000000000000e+00 5.0780000000000003e+00
0.0000000000000000e+00 3.5670000000000002e+00
ITEM: ATOMS id type x y z
1 1 0.0233872 0.0233872 0.167792
2 1 2.55704 2.55704 1.65036
3 2 1.24271 3.88877 1.86659
4 2 3.88877 1.24271 1.86659
5 2 3.77849 3.77849 -0.0479961
6 2 1.34628 1.34628 -0.048713
ITEM: TIMESTEP
27
ITEM: NUMBER OF ATOMS
6
ITEM: BOX BOUNDS pp pp pp
0.0000000000000000e+00 5.0780000000000003e+00
0.0000000000000000e+00 5.0780000000000003e+00
0.0000000000000000e+00 3.5670000000000002e+00
ITEM: ATOMS id type x y z
1 1 0.0234187 0.0234187 0.168897
2 1 2.55787 2.55787 1.64935
3 2 1.24278 3.88822 1.86727
4 2 3.88822 1.24278 1.86727
5 2 3.77847 3.77847 -0.0487268
6 2 1.34593 1.34593 -0.0494388
ITEM: TIMESTEP
28
ITEM: NUMBER OF ATOMS
6
ITEM: BOX BOUNDS pp pp pp
0.0000000000000000e+00 5.0780000000000003e+00
0.0000000000000000e+00 5.0780000000000003e+00
0.0000000000000000e+00 3.5670000000000002e+00
ITEM: ATOMS id type x y z
1 1 0.0230737 0.0230737 0.170539
2 1 2.55936 2.55936 1.64783
3 2 1.24239 3.88756 1.86808
4 2 3.88756 1.24239 1.86808
5 2 3.77839 3.77839 -0.0495544
6 2 1.3459 1.3459 -0.0503439
ITEM: TIMESTEP
29
ITEM: NUMBER OF ATOMS
6
ITEM: BOX BOUNDS pp pp pp
0.0000000000000000e+00 5.0780000000000003e+00
0.0000000000000000e+00 5.0780000000000003e+00
0.0000000000000000e+00 3.5670000000000002e+00
ITEM: ATOMS id type x y z
1 1 0.0231968 0.0231968 0.17128
2 1 2.56005 2.56005 1.64704
3 2 1.2417 3.88744 1.86821
4 2 3.88744 1.2417 1.86821
5 2 3.77843 3.77843 -0.0497003
6 2 1.34587 1.34587 -0.0504155
ITEM: TIMESTEP
30
ITEM: NUMBER OF ATOMS
6
ITEM: BOX BOUNDS pp pp pp
0.0000000000000000e+00 5.0780000000000003e+00
0.0000000000000000e+00 5.0780000000000003e+00
0.0000000000000000e+00 3.5670000000000002e+00
ITEM: ATOMS id type x y z
1 1 0.0232841 0.0232841 0.172025
2 1 2.56085 2.56085 1.64622
3 2 1.24111 3.88662 1.86824
4 2 3.88662 1.24111 1.86824
5 2 3.77862 3.77862 -0.0497872
6 2 1.34619 1.34619 -0.0503122
ITEM: TIMESTEP
31
ITEM: NUMBER OF ATOMS
6
ITEM: BOX BOUNDS pp pp pp
0.0000000000000000e+00 5.0780000000000003e+00
0.0000000000000000e+00 5.0780000000000003e+00
0.0000000000000000e+00 3.5670000000000002e+00
ITEM: ATOMS id type x y z
1 1 0.0235448 0.0235448 0.172174
2 1 2.56123 2.56123 1.64603
3 2 1.24088 3.88618 1.86833
4 2 3.88618 1.24088 1.86833
5 2 3.77873 3.77873 -0.0499302
6 2 1.34612 1.34612 -0.0503074
ITEM: TIMESTEP
32
ITEM: NUMBER OF ATOMS
6
ITEM: BOX BOUNDS pp pp pp
0.0000000000000000e+00 5.0780000000000003e+00
0.0000000000000000e+00 5.0780000000000003e+00
0.0000000000000000e+00 3.5670000000000002e+00
ITEM: ATOMS id type x y z
1 1 0.0235606 0.0235606 0.172167
2 1 2.56153 2.56153 1.64601
3 2 1.24063 3.88589 1.86845
4 2 3.88589 1.24063 1.86845
5 2 3.77892 3.77892 -0.0500937
6 2 1.34615 1.34615 -0.0503682
ITEM: TIMESTEP
33
ITEM: NUMBER OF ATOMS
6
ITEM: BOX BOUNDS pp pp pp
0.0000000000000000e+00 5.0780000000000003e+00
0.0000000000000000e+00 5.0780000000000003e+00
0.0000000000000000e+00 3.5670000000000002e+00
ITEM: ATOMS id type x y z
1 1 0.0235606 0.0235606 0.172167
2 1 2.56153 2.56153 1.64601
3 2 1.24063 3.88589 1.86845
4 2 3.88589 1.24063 1.86845
5 2 3.77892 3.77892 -0.0500937
6 2 1.34615 1.34615 -0.0503682
