ITEM: TIMESTEP
0
ITEM: NUMBER OF ATOMS
12
ITEM: BOX BOUNDS pp pp pp
0.0000000000000000e+00 6.5117329500000016e+00
0.0000000000000000e+00 6.5117329500000016e+00
0.0000000000000000e+00 6.5117329500000016e+00
ITEM: ATOMS id type x y z
1 1 0 0 0
2 1 0 3.25587 3.25587
3 1 3.25587 0 3.25587
4 1 3.25587 3.25587 0
5 2 1.62793 1.62793 4.8838
6 2 1.62793 4.8838 4.8838
7 2 1.62793 4.8838 1.62793
8 2 1.62793 1.62793 1.62793
9 2 4.8838 1.62793 1.62793
10 2 4.8838 4.8838 1.62793
11 2 4.8838 4.8838 4.8838
12 2 4.8838 1.62793 4.8838
ITEM: TIMESTEP
1
ITEM: NUMBER OF ATOMS
12
ITEM: BOX BOUNDS pp pp pp
0.0000000000000000e+00 6.5117329500000016e+00
0.0000000000000000e+00 6.5117329500000016e+00
0.0000000000000000e+00 6.5117329500000016e+00
ITEM: ATOMS id type x y z
1 1 0 -2.83423e-16 -1.71771e-17
2 1 3.66446e-16 3.25587 3.25587
3 1 3.25587 -2.5551e-16 3.25587
4 1 3.25587 3.25587 8.53131e-16
5 2 1.62793 1.62793 4.8838
6 2 1.62793 4.8838 4.8838
7 2 1.62793 4.8838 1.62793
8 2 1.62793 1.62793 1.62793
9 2 4.8838 1.62793 1.62793
10 2 4.8838 4.8838 1.62793
11 2 4.8838 4.8838 4.8838
12 2 4.8838 1.62793 4.8838
ITEM: TIMESTEP
2
ITEM: NUMBER OF ATOMS
12
ITEM: BOX BOUNDS pp pp pp
0.0000000000000000e+00 6.5117329500000016e+00
0.0000000000000000e+00 6.5117329500000016e+00
0.0000000000000000e+00 6.5117329500000016e+00
ITEM: ATOMS id type x y z
1 1 0 -2.83423e-16 -1.71771e-17
2 1 3.66446e-16 3.25587 3.25587
3 1 3.25587 -2.5551e-16 3.25587
4 1 3.25587 3.25587 8.53131e-16
5 2 1.62793 1.62793 4.8838
6 2 1.62793 4.8838 4.8838
7 2 1.62793 4.8838 1.62793
8 2 1.62793 1.62793 1.62793
9 2 4.8838 1.62793 1.62793
10 2 4.8838 4.8838 1.62793
11 2 4.8838 4.8838 4.8838
12 2 4.8838 1.62793 4.8838
