ITEM: TIMESTEP
0
ITEM: NUMBER OF ATOMS
150
ITEM: BOX BOUNDS ss pp pp
-1.9898955139558279e+01 1.9598233576019407e+01
-2.0000000000000000e+01 2.0000000000000000e+01
-2.0000000000000000e+01 2.0000000000000000e+01
ITEM: ATOMS id type xs ys zs
112 2 0.464977 0.0968729 0.142176
130 2 0.420207 0.0945514 0.124548
5 1 0.641164 0.0423122 0.140499
113 2 0.558435 0.0975873 0.149666
82 1 0.0116207 0.311124 0.0672415
87 1 0.473487 0.318502 0.0565904
96 1 0.086402 0.361578 0.0380406
4 1 0.566528 0.399305 0.114097
36 1 0.633475 0.432626 0.140273
91 1 0.610941 0.476172 0.0307935
54 1 0.774355 0.440949 0.0290943
128 2 0.678782 0.337607 0.154207
57 1 0.870762 0.386751 0.132181
20 1 0.103948 0.551445 0.131218
53 1 0.136185 0.545729 0.0723965
109 2 0.125217 0.531389 0.0570933
75 1 0.255554 0.563994 0.0457649
41 1 0.607457 0.649141 0.119415
126 2 0.0770826 0.6987 0.0485978
2 1 0.321363 0.704053 0.0113976
100 1 0.219054 0.818533 0.0829177
131 2 0.276658 0.790684 0.0300738
143 2 0.262373 0.727439 0.0720495
133 2 0.343958 0.698885 0.159994
78 1 0.245215 0.985546 0.0686921
3 1 0.564212 0.974007 0.14182
9 1 0.63844 0.837634 0.110763
32 1 0.832292 0.946993 0.110104
27 1 0.858081 0.938547 0.151842
102 2 0.95895 0.930865 0.0515216
77 1 0.0284234 0.164293 0.276506
142 2 0.000101273 0.137224 0.327736
145 2 0.0819288 0.125382 0.291614
146 2 0.158815 0.110564 0.249641
6 1 0.371998 0.029522 0.175931
44 1 0.734921 0.0121528 0.251974
8 1 0.875688 0.145012 0.214472
80 1 0.0741062 0.30358 0.267107
114 2 0.435279 0.229085 0.234817
136 2 0.472703 0.303046 0.294926
85 1 0.060913 0.351774 0.270741
12 1 0.188237 0.386167 0.307505
116 2 0.588582 0.39753 0.286779
49 1 0.244468 0.581384 0.329046
81 1 0.266161 0.595302 0.236628
47 1 0.432289 0.614404 0.292218
37 1 0.569186 0.515398 0.289806
121 2 0.798283 0.543005 0.283237
68 1 0.711108 0.815982 0.211538
55 1 0.998287 0.757314 0.17651
25 1 0.669117 0.939205 0.222875
129 2 0.771676 0.979016 0.330066
124 2 0.0445633 0.0175784 0.439914
34 1 0.0634358 0.219758 0.47988
120 2 0.21125 0.307516 0.423978
97 1 0.350745 0.32001 0.406787
11 1 0.666481 0.188165 0.495757
33 1 0.523251 0.194826 0.446663
62 1 0.629127 0.275505 0.407267
117 2 0.902384 0.17513 0.404572
19 1 0.0505535 0.428003 0.451842
83 1 0.127375 0.34167 0.439757
15 1 0.362504 0.477266 0.408173
107 2 0.609677 0.498803 0.378033
60 1 0.61065 0.634405 0.441234
21 1 0.381258 0.708187 0.499288
45 1 0.944358 0.761431 0.368228
148 2 0.330773 0.883462 0.341125
61 1 0.832532 0.92642 0.340015
103 2 0.932314 0.887449 0.356524
52 1 0.488717 0.0653601 0.507475
89 1 0.343557 0.0440058 0.605669
99 1 0.383581 0.270461 0.645934
122 2 0.365928 0.297176 0.64236
110 2 0.571515 0.174015 0.666624
147 2 0.730963 0.314424 0.522421
67 1 0.0110277 0.469841 0.612465
86 1 0.342914 0.368689 0.563424
26 1 0.869382 0.481497 0.512992
111 2 0.951864 0.335136 0.624291
94 1 0.292916 0.604185 0.542513
144 2 0.945493 0.606506 0.550609
88 1 0.114323 0.725808 0.658555
104 2 0.10468 0.695043 0.583283
13 1 0.23622 0.701583 0.501822
23 1 0.64512 0.699446 0.583546
40 1 0.869639 0.758529 0.598834
16 1 0.161157 0.972072 0.612079
42 1 0.00840608 0.961536 0.529847
134 2 0.023346 0.899724 0.664478
22 1 0.545106 0.880917 0.564327
79 1 0.511548 0.971718 0.664133
59 1 0.827531 0.945469 0.503695
18 1 0.982391 0.949401 0.580416
66 1 0.89002 0.994502 0.590231
95 1 0.015889 0.145761 0.807883
115 2 0.579584 0.0763213 0.731575
150 2 0.934371 0.0258683 0.768422
71 1 0.18504 0.33229 0.793897
93 1 0.287536 0.333237 0.706628
108 2 0.603702 0.325384 0.724944
74 1 0.775432 0.323303 0.748156
7 1 0.886725 0.303966 0.762829
139 2 0.910341 0.224833 0.765078
65 1 0.15365 0.396371 0.81388
123 2 0.1363 0.448844 0.721726
29 1 0.441377 0.433791 0.731592
1 1 0.542122 0.359714 0.709069
51 1 0.504885 0.397494 0.678913
125 2 0.642274 0.455505 0.673117
38 1 0.770015 0.414395 0.741008
28 1 0.00259661 0.549221 0.750725
39 1 0.115099 0.615564 0.791805
50 1 0.276951 0.66328 0.74698
106 2 0.308578 0.530595 0.709502
140 2 0.680238 0.500489 0.712111
84 1 0.999899 0.507093 0.708756
43 1 0.130292 0.754494 0.78192
76 1 0.169581 0.769192 0.807522
90 1 0.489665 0.812798 0.690998
132 2 0.45351 0.78781 0.722874
58 1 0.572031 0.730694 0.77193
119 2 0.514786 0.713494 0.691629
46 1 0.813842 0.765974 0.724486
63 1 0.938148 0.713497 0.749278
73 1 0.0134066 0.948935 0.753303
48 1 0.306495 0.963752 0.787544
70 1 0.441586 0.900388 0.816397
24 1 0.656641 0.889257 0.739374
92 1 0.55035 0.913234 0.725905
64 1 0.117418 0.0963194 0.840849
69 1 0.324644 0.160345 0.912801
149 2 0.280714 0.110311 0.993153
10 1 0.592058 0.0932894 0.914837
98 1 0.885142 0.0347971 0.834615
17 1 0.216431 0.281184 0.863567
105 2 0.243178 0.177783 0.996805
56 1 0.614723 0.231273 0.998921
135 2 0.895035 0.219009 0.882517
35 1 0.352678 0.407678 0.84052
101 2 0.919687 0.3348 0.982207
138 2 0.526049 0.624081 0.931035
137 2 0.826729 0.631516 0.890791
72 1 0.0279767 0.750992 0.921284
141 2 0.460134 0.719513 0.850301
127 2 0.790702 0.73707 0.928582
30 1 0.883619 0.760156 0.939292
14 1 0.122529 0.910096 0.985623
118 2 0.641094 0.886772 0.980693
31 1 0.692253 0.902775 0.941324
ITEM: TIMESTEP
1
ITEM: NUMBER OF ATOMS
150
ITEM: BOX BOUNDS ss pp pp
-1.9898955139558279e+01 1.9598233576019407e+01
-2.0000000000000000e+01 2.0000000000000000e+01
-2.0000000000000000e+01 2.0000000000000000e+01
ITEM: ATOMS id type xs ys zs
112 2 0.466222 0.0969342 0.142657
130 2 0.418991 0.0944839 0.124072
5 1 0.641165 0.0423125 0.140499
113 2 0.558422 0.0975851 0.149664
82 1 0.0115725 0.311107 0.0672495
87 1 0.473482 0.318501 0.0565904
96 1 0.0864091 0.361597 0.0380303
4 1 0.566525 0.399303 0.114097
36 1 0.633478 0.432627 0.140274
91 1 0.610942 0.476172 0.0307936
54 1 0.77436 0.440952 0.0290922
128 2 0.678799 0.337605 0.154205
57 1 0.870775 0.386753 0.132189
20 1 0.10391 0.55143 0.131219
53 1 0.138009 0.548118 0.0748965
109 2 0.123397 0.529008 0.054599
75 1 0.25555 0.563991 0.0457595
41 1 0.607458 0.649141 0.119415
126 2 0.0770718 0.698701 0.0486024
2 1 0.321343 0.704061 0.0114071
100 1 0.219063 0.818516 0.0829046
131 2 0.27664 0.790685 0.0300966
143 2 0.262386 0.727443 0.0720358
133 2 0.343959 0.698885 0.159993
78 1 0.245205 0.985552 0.0686928
3 1 0.56421 0.974009 0.14182
9 1 0.638441 0.837634 0.110763
32 1 0.832316 0.946986 0.110147
27 1 0.858058 0.938555 0.151807
102 2 0.958996 0.930865 0.0515114
77 1 0.0284233 0.164231 0.276553
142 2 0.000125178 0.137239 0.327694
145 2 0.0818893 0.125413 0.291594
146 2 0.158788 0.110567 0.249654
6 1 0.371995 0.0295284 0.175929
44 1 0.734924 0.0121527 0.251976
8 1 0.875701 0.145012 0.214469
80 1 0.0740859 0.303598 0.267103
114 2 0.43529 0.2291 0.234829
136 2 0.472699 0.30303 0.294916
85 1 0.0608905 0.351762 0.270733
12 1 0.188239 0.386175 0.307502
116 2 0.588593 0.397531 0.286777
49 1 0.244451 0.581384 0.329056
81 1 0.266153 0.595305 0.236619
47 1 0.432285 0.614405 0.292218
37 1 0.569185 0.515394 0.289811
121 2 0.798309 0.543005 0.283237
68 1 0.711113 0.815981 0.211538
55 1 0.998306 0.757313 0.176509
25 1 0.669117 0.939205 0.222874
129 2 0.771711 0.979004 0.330067
124 2 0.0445573 0.0175836 0.439903
34 1 0.0634091 0.219749 0.479887
120 2 0.211244 0.307519 0.423979
97 1 0.350737 0.320006 0.406784
11 1 0.666482 0.188164 0.495756
33 1 0.523249 0.194827 0.446663
62 1 0.629127 0.275504 0.407266
117 2 0.902415 0.17513 0.404575
19 1 0.0505202 0.428018 0.451838
83 1 0.127383 0.341662 0.439762
15 1 0.362497 0.477267 0.408173
107 2 0.60969 0.498809 0.378033
60 1 0.61065 0.634405 0.441234
21 1 0.381256 0.708189 0.499287
45 1 0.944373 0.761412 0.368231
148 2 0.330774 0.883462 0.341125
61 1 0.83251 0.926439 0.340011
103 2 0.932354 0.887462 0.356522
52 1 0.488713 0.0653601 0.507475
89 1 0.343548 0.0440066 0.605669
99 1 0.384262 0.269403 0.646074
122 2 0.365245 0.298238 0.642221
110 2 0.571525 0.174015 0.66662
147 2 0.730985 0.314425 0.522422
67 1 0.011 0.469836 0.61246
86 1 0.342904 0.368688 0.563428
26 1 0.869387 0.481489 0.512988
111 2 0.951901 0.335138 0.624279
94 1 0.292906 0.604177 0.542517
144 2 0.945532 0.606513 0.550606
88 1 0.114298 0.725802 0.658523
104 2 0.104674 0.695049 0.5833
13 1 0.236202 0.701589 0.501817
23 1 0.645123 0.699446 0.583545
40 1 0.869649 0.758534 0.598829
16 1 0.161149 0.972074 0.612081
42 1 0.00837026 0.961531 0.529848
134 2 0.0233345 0.899713 0.664472
22 1 0.545104 0.880917 0.564327
79 1 0.511546 0.97172 0.664133
59 1 0.827535 0.945468 0.503695
18 1 0.98242 0.949395 0.580415
66 1 0.890022 0.994508 0.590233
95 1 0.0158454 0.145773 0.807877
115 2 0.579596 0.0763167 0.731577
150 2 0.934399 0.0258652 0.768432
71 1 0.18503 0.332276 0.793887
93 1 0.287532 0.333234 0.706617
108 2 0.603656 0.325412 0.724932
74 1 0.775436 0.323301 0.748156
7 1 0.886734 0.303954 0.76283
139 2 0.910367 0.224844 0.765054
65 1 0.153622 0.396394 0.813889
123 2 0.136297 0.448845 0.721722
29 1 0.441372 0.433793 0.731593
1 1 0.54218 0.359678 0.709087
51 1 0.504881 0.397499 0.678907
125 2 0.642249 0.45547 0.673081
38 1 0.770024 0.414397 0.741009
28 1 0.0025555 0.549221 0.750733
39 1 0.11509 0.615556 0.791814
50 1 0.276948 0.663277 0.746979
106 2 0.308578 0.530595 0.709502
140 2 0.680283 0.500532 0.712145
84 1 0.99992 0.507094 0.708761
43 1 0.130309 0.754515 0.781943
76 1 0.169546 0.76919 0.807509
90 1 0.489532 0.812703 0.691109
132 2 0.453655 0.787889 0.722758
58 1 0.572026 0.730693 0.771928
119 2 0.514788 0.713511 0.691634
46 1 0.813845 0.765976 0.724487
63 1 0.938171 0.713496 0.74928
73 1 0.0133784 0.948938 0.753317
48 1 0.306481 0.963753 0.787544
70 1 0.441582 0.900386 0.816398
24 1 0.656644 0.889257 0.739374
92 1 0.55035 0.913234 0.725906
64 1 0.117421 0.0963108 0.840857
69 1 0.324635 0.160342 0.912801
149 2 0.280711 0.110318 0.993153
10 1 0.592058 0.0932894 0.914837
98 1 0.885152 0.0347942 0.834611
17 1 0.216421 0.281173 0.863579
105 2 0.243179 0.177776 0.996807
56 1 0.614724 0.231273 0.998921
135 2 0.895054 0.218991 0.88254
35 1 0.352671 0.40768 0.840524
101 2 0.919725 0.334812 0.982213
138 2 0.526061 0.62408 0.931036
137 2 0.826756 0.631489 0.890784
72 1 0.0279419 0.750993 0.921283
141 2 0.460139 0.719514 0.850301
127 2 0.790705 0.737086 0.928588
30 1 0.883641 0.760164 0.939296
14 1 0.122503 0.9101 0.985617
118 2 0.64116 0.886788 0.980655
31 1 0.692204 0.90276 0.941361
ITEM: TIMESTEP
2
ITEM: NUMBER OF ATOMS
150
ITEM: BOX BOUNDS ss pp pp
-1.9898955139558279e+01 1.9598233576019407e+01
-2.0000000000000000e+01 2.0000000000000000e+01
-2.0000000000000000e+01 2.0000000000000000e+01
ITEM: ATOMS id type xs ys zs
112 2 0.468742 0.0970561 0.143624
130 2 0.41655 0.0943444 0.12312
5 1 0.641167 0.0423133 0.140499
113 2 0.558384 0.0975793 0.149659
82 1 0.0114405 0.31106 0.0672713
87 1 0.473469 0.318501 0.0565902
96 1 0.0864275 0.361644 0.0380019
4 1 0.566516 0.399298 0.114097
36 1 0.633485 0.432629 0.140277
91 1 0.610945 0.476172 0.0307938
54 1 0.774373 0.440961 0.0290863
128 2 0.678847 0.337601 0.154198
57 1 0.87081 0.386758 0.132212
20 1 0.103804 0.551398 0.131243
53 1 0.139877 0.550554 0.0773884
109 2 0.121532 0.526585 0.052099
75 1 0.25554 0.563984 0.0457467
41 1 0.607461 0.649141 0.119415
126 2 0.0770423 0.698704 0.0486154
2 1 0.321288 0.704084 0.0114333
100 1 0.219087 0.818469 0.0828683
131 2 0.276592 0.790687 0.0301592
143 2 0.262421 0.727452 0.0719981
133 2 0.343962 0.698883 0.15999
78 1 0.245175 0.98557 0.0686947
3 1 0.564204 0.974012 0.14182
9 1 0.638443 0.837633 0.110764
32 1 0.832383 0.946966 0.110265
27 1 0.857996 0.938578 0.151711
102 2 0.959123 0.930865 0.0514835
77 1 0.0284236 0.164061 0.276682
142 2 0.000190528 0.137279 0.327577
145 2 0.0817807 0.125499 0.291538
146 2 0.158715 0.110574 0.249689
6 1 0.371987 0.0295467 0.175922
44 1 0.734931 0.0121526 0.251981
8 1 0.875736 0.145012 0.214461
80 1 0.07403 0.303647 0.267093
114 2 0.435322 0.229141 0.234862
136 2 0.47269 0.302987 0.294887
85 1 0.0608291 0.351729 0.270711
12 1 0.188246 0.386195 0.307493
116 2 0.588623 0.397533 0.286771
49 1 0.244403 0.581384 0.329084
81 1 0.26613 0.595313 0.236592
47 1 0.432271 0.614408 0.292217
37 1 0.569183 0.515383 0.289825
121 2 0.79838 0.543006 0.283236
68 1 0.711128 0.815978 0.211538
55 1 0.998359 0.75731 0.176507
25 1 0.669119 0.939204 0.222871
129 2 0.771809 0.978971 0.33007
124 2 0.0445407 0.0175978 0.439872
34 1 0.0633356 0.219722 0.479907
120 2 0.211226 0.307526 0.423982
97 1 0.350715 0.319997 0.406776
11 1 0.666487 0.188159 0.495755
33 1 0.523243 0.194828 0.446662
62 1 0.629129 0.275503 0.407265
117 2 0.902501 0.175131 0.404583
19 1 0.050429 0.428058 0.451828
83 1 0.127403 0.34164 0.439775
15 1 0.362477 0.47727 0.408173
107 2 0.609726 0.498825 0.378033
60 1 0.610652 0.634406 0.441235
21 1 0.38125 0.708196 0.499285
45 1 0.944414 0.761359 0.36824
148 2 0.330776 0.883462 0.341124
61 1 0.83245 0.926491 0.34
103 2 0.932463 0.887499 0.356517
52 1 0.488704 0.0653601 0.507474
89 1 0.343521 0.0440088 0.605668
99 1 0.385558 0.267369 0.64634
122 2 0.363944 0.300279 0.641955
110 2 0.571551 0.174017 0.66661
147 2 0.731047 0.314429 0.522423
67 1 0.0109237 0.469824 0.612446
86 1 0.342876 0.368683 0.563439
26 1 0.869402 0.481469 0.512977
111 2 0.952004 0.335143 0.624244
94 1 0.292881 0.604154 0.542528
144 2 0.945639 0.60653 0.550598
88 1 0.114231 0.725784 0.658431
104 2 0.104656 0.695066 0.583345
13 1 0.236152 0.701607 0.501805
23 1 0.645131 0.699446 0.583545
40 1 0.869675 0.758548 0.598817
16 1 0.161127 0.972078 0.612084
42 1 0.00827183 0.961517 0.529852
134 2 0.0233031 0.899684 0.664457
22 1 0.545102 0.880916 0.564326
79 1 0.511539 0.971726 0.664133
59 1 0.827543 0.945464 0.503693
18 1 0.982501 0.949381 0.580411
66 1 0.890027 0.994526 0.590237
95 1 0.0157257 0.145807 0.807861
115 2 0.579629 0.0763042 0.731581
150 2 0.934476 0.0258567 0.768457
71 1 0.185004 0.332237 0.793858
93 1 0.287519 0.333226 0.706589
108 2 0.60353 0.325489 0.7249
74 1 0.775445 0.323297 0.748156
7 1 0.886758 0.303921 0.762833
139 2 0.91044 0.224876 0.764985
65 1 0.153542 0.396456 0.813912
123 2 0.136288 0.448849 0.721711
29 1 0.441357 0.433798 0.731593
1 1 0.542343 0.359578 0.709138
51 1 0.504868 0.397512 0.678892
125 2 0.642183 0.455376 0.672982
38 1 0.770051 0.4144 0.741013
28 1 0.0024425 0.549222 0.750754
39 1 0.115065 0.615533 0.791841
50 1 0.276941 0.663268 0.746974
106 2 0.30858 0.530596 0.709503
140 2 0.680406 0.50065 0.712234
84 1 0.999977 0.507096 0.708776
43 1 0.130357 0.754573 0.782006
76 1 0.169452 0.769186 0.807472
90 1 0.489119 0.812411 0.691453
132 2 0.454098 0.788136 0.722399
58 1 0.572014 0.730692 0.771926
119 2 0.514792 0.713558 0.691648
46 1 0.813852 0.765983 0.724491
63 1 0.938233 0.713492 0.749285
73 1 0.0133007 0.948946 0.753354
48 1 0.306443 0.963755 0.787545
70 1 0.44157 0.90038 0.816399
24 1 0.656652 0.889256 0.739374
92 1 0.550349 0.913233 0.725907
64 1 0.117428 0.0962871 0.840877
69 1 0.324612 0.160335 0.912803
149 2 0.280705 0.110338 0.993152
10 1 0.592059 0.0932894 0.914837
98 1 0.88518 0.0347862 0.834597
17 1 0.216396 0.281143 0.863613
105 2 0.24318 0.177756 0.99681
56 1 0.614728 0.231273 0.99892
135 2 0.895105 0.218941 0.882604
35 1 0.352652 0.407686 0.840533
101 2 0.919829 0.334845 0.982231
138 2 0.526092 0.624076 0.931039
137 2 0.826829 0.631415 0.890764
72 1 0.0278461 0.750995 0.92128
141 2 0.460154 0.719518 0.850303
127 2 0.790714 0.737133 0.928606
30 1 0.8837 0.760186 0.939307
14 1 0.122431 0.910111 0.985601
118 2 0.641341 0.886833 0.98055
31 1 0.692067 0.902717 0.941466
ITEM: TIMESTEP
3
ITEM: NUMBER OF ATOMS
150
ITEM: BOX BOUNDS ss pp pp
-1.9898955139558279e+01 1.9598233576019407e+01
-2.0000000000000000e+01 2.0000000000000000e+01
-2.0000000000000000e+01 2.0000000000000000e+01
ITEM: ATOMS id type xs ys zs
112 2 0.471274 0.0971709 0.144571
130 2 0.414165 0.0941938 0.122201
5 1 0.64117 0.0423148 0.140499
113 2 0.558316 0.0975687 0.14965
82 1 0.0111932 0.310972 0.0673118
87 1 0.473444 0.318499 0.05659
96 1 0.0864607 0.361727 0.0379485
4 1 0.566499 0.399288 0.114095
36 1 0.6335 0.432634 0.140284
91 1 0.61095 0.476172 0.0307942
54 1 0.774397 0.440978 0.0290753
128 2 0.678937 0.337593 0.154184
57 1 0.870877 0.386766 0.132255
20 1 0.103597 0.551349 0.131324
53 1 0.140928 0.551902 0.0786569
109 2 0.120491 0.525257 0.0507807
75 1 0.255524 0.563973 0.0457232
41 1 0.607467 0.649141 0.119416
126 2 0.0769872 0.698711 0.04864
2 1 0.321185 0.704129 0.0114834
100 1 0.219133 0.818381 0.082799
131 2 0.2765 0.790693 0.030277
143 2 0.262489 0.727469 0.0719275
133 2 0.343967 0.698881 0.159984
78 1 0.24512 0.985602 0.0686984
3 1 0.564192 0.974019 0.14182
9 1 0.638448 0.837632 0.110766
32 1 0.832511 0.946927 0.110491
27 1 0.857875 0.938622 0.151525
102 2 0.959362 0.930865 0.0514313
77 1 0.0284265 0.163741 0.276922
142 2 0.000310252 0.137354 0.32736
145 2 0.0815783 0.125661 0.291433
146 2 0.158577 0.110588 0.249753
6 1 0.371973 0.0295834 0.175907
44 1 0.734945 0.0121526 0.25199
8 1 0.875803 0.145012 0.214445
80 1 0.0739245 0.30374 0.267073
114 2 0.435382 0.229219 0.234925
136 2 0.472672 0.302905 0.294834
85 1 0.0607144 0.351665 0.27067
12 1 0.188258 0.386234 0.307476
116 2 0.58868 0.397537 0.286759
49 1 0.244314 0.581383 0.329135
81 1 0.266088 0.595328 0.236541
47 1 0.432247 0.614413 0.292216
37 1 0.569179 0.515362 0.289851
121 2 0.798515 0.543008 0.283234
68 1 0.711156 0.815972 0.211539
55 1 0.998459 0.757304 0.176501
25 1 0.669121 0.939202 0.222865
129 2 0.771994 0.978906 0.330076
124 2 0.0445096 0.0176245 0.439815
34 1 0.0631979 0.219671 0.479943
120 2 0.211193 0.307539 0.423988
97 1 0.350673 0.319979 0.406761
11 1 0.666496 0.188149 0.495752
33 1 0.523231 0.19483 0.446661
62 1 0.629133 0.275502 0.407264
117 2 0.902662 0.175134 0.404598
19 1 0.0502579 0.428134 0.45181
83 1 0.127441 0.3416 0.439801
15 1 0.362439 0.477275 0.408174
107 2 0.609793 0.498856 0.378033
60 1 0.610655 0.634407 0.441235
21 1 0.381239 0.708208 0.49928
45 1 0.944493 0.76126 0.368257
148 2 0.330779 0.883462 0.341124
61 1 0.832337 0.92659 0.339979
103 2 0.932669 0.887568 0.356507
52 1 0.488687 0.06536 0.507473
89 1 0.34347 0.0440128 0.605666
99 1 0.386577 0.265704 0.646553
122 2 0.362913 0.301956 0.641744
110 2 0.5716 0.17402 0.666592
147 2 0.731164 0.314436 0.522426
67 1 0.0107806 0.469802 0.612421
86 1 0.342824 0.368675 0.563459
26 1 0.869429 0.481432 0.512956
111 2 0.952196 0.335154 0.62418
94 1 0.292834 0.604111 0.542549
144 2 0.945841 0.606563 0.550584
88 1 0.114106 0.72575 0.658259
104 2 0.104624 0.695099 0.583431
13 1 0.236058 0.701641 0.501781
23 1 0.645147 0.699446 0.583543
40 1 0.869723 0.758575 0.598793
16 1 0.161086 0.972088 0.612091
42 1 0.00808725 0.961491 0.52986
134 2 0.0232442 0.899628 0.664427
22 1 0.545096 0.880916 0.564325
79 1 0.511527 0.971737 0.664135
59 1 0.82756 0.945456 0.503691
18 1 0.982653 0.949353 0.580403
66 1 0.890037 0.99456 0.590245
95 1 0.0155014 0.145871 0.807831
115 2 0.579691 0.0762807 0.731589
150 2 0.934621 0.0258407 0.768505
71 1 0.184954 0.332165 0.793805
93 1 0.287494 0.333212 0.706538
108 2 0.603289 0.325636 0.724839
74 1 0.775463 0.323289 0.748157
7 1 0.886803 0.303858 0.762838
139 2 0.910577 0.224936 0.764856
65 1 0.153394 0.396571 0.813957
123 2 0.136273 0.448856 0.72169
29 1 0.441329 0.433807 0.731593
1 1 0.542654 0.359387 0.709236
51 1 0.504843 0.397538 0.678862
125 2 0.64207 0.455213 0.672808
38 1 0.7701 0.414407 0.741021
28 1 0.00223062 0.549223 0.750793
39 1 0.115018 0.615491 0.791892
50 1 0.276926 0.663252 0.746965
106 2 0.308584 0.530597 0.709503
140 2 0.680627 0.500858 0.71239
84 1 1.00008 0.5071 0.708804
43 1 0.130447 0.754682 0.782125
76 1 0.169273 0.769177 0.807401
90 1 0.4882 0.811762 0.692227
132 2 0.45508 0.788695 0.721595
58 1 0.57199 0.730689 0.77192
119 2 0.514793 0.713654 0.691678
46 1 0.813865 0.765996 0.724499
63 1 0.938349 0.713485 0.749293
73 1 0.0131551 0.948961 0.753423
48 1 0.306371 0.963758 0.787546
70 1 0.441547 0.900369 0.816402
24 1 0.656667 0.889255 0.739373
92 1 0.550349 0.913231 0.72591
64 1 0.117442 0.0962427 0.840916
69 1 0.324567 0.160321 0.912806
149 2 0.280692 0.110375 0.993151
10 1 0.592061 0.0932895 0.914837
98 1 0.885232 0.0347711 0.834573
17 1 0.216348 0.281087 0.863675
105 2 0.243182 0.17772 0.996816
56 1 0.614735 0.231273 0.99892
135 2 0.895201 0.218847 0.882723
35 1 0.352617 0.407697 0.84055
101 2 0.920025 0.334907 0.982264
138 2 0.526152 0.624068 0.931045
137 2 0.826968 0.631274 0.890726
72 1 0.0276664 0.750999 0.921276
141 2 0.460181 0.719525 0.850307
127 2 0.79073 0.73722 0.92864
30 1 0.883813 0.760228 0.939326
14 1 0.122296 0.910131 0.985571
118 2 0.641681 0.886917 0.980352
31 1 0.691811 0.902637 0.941662
ITEM: TIMESTEP
4
ITEM: NUMBER OF ATOMS
150
ITEM: BOX BOUNDS ss pp pp
-1.9898955139558279e+01 1.9598233576019407e+01
-2.0000000000000000e+01 2.0000000000000000e+01
-2.0000000000000000e+01 2.0000000000000000e+01
ITEM: ATOMS id type xs ys zs
112 2 0.473806 0.0972713 0.145475
130 2 0.411897 0.0940201 0.121352
5 1 0.641177 0.0423176 0.140499
113 2 0.5582 0.097549 0.149638
82 1 0.0107249 0.310806 0.0673883
87 1 0.473396 0.318496 0.0565894
96 1 0.0865223 0.361882 0.0378478
4 1 0.566468 0.399269 0.114093
36 1 0.633527 0.432643 0.140296
91 1 0.610959 0.476172 0.0307951
54 1 0.774444 0.44101 0.0290544
128 2 0.679108 0.337578 0.154159
57 1 0.871004 0.386781 0.132336
20 1 0.103193 0.551262 0.131508
53 1 0.141534 0.552643 0.0791518
109 2 0.119907 0.524548 0.0501588
75 1 0.255494 0.563951 0.0456789
41 1 0.607478 0.649141 0.119416
126 2 0.0768826 0.698724 0.0486867
2 1 0.320986 0.704214 0.0115815
100 1 0.219226 0.818212 0.0826627
131 2 0.276322 0.790713 0.0305014
143 2 0.262618 0.727493 0.0717941
133 2 0.343977 0.698877 0.159972
78 1 0.245015 0.985665 0.0687054
3 1 0.56417 0.974032 0.14182
9 1 0.638456 0.837631 0.11077
32 1 0.832764 0.946852 0.110933
27 1 0.857639 0.938709 0.15116
102 2 0.959815 0.930865 0.0513327
77 1 0.0284401 0.163138 0.277373
142 2 0.000525493 0.137495 0.326959
145 2 0.0812002 0.125968 0.291229
146 2 0.158315 0.110616 0.249875
6 1 0.371949 0.0296577 0.175875
44 1 0.734971 0.0121528 0.252007
8 1 0.875929 0.145013 0.214415
80 1 0.0737226 0.303922 0.267036
114 2 0.435496 0.229368 0.235045
136 2 0.472637 0.302748 0.294731
85 1 0.0604987 0.351538 0.270592
12 1 0.188282 0.386308 0.307444
116 2 0.588788 0.397546 0.286737
49 1 0.244146 0.581381 0.329233
81 1 0.266008 0.595357 0.236446
47 1 0.4322 0.614422 0.292215
37 1 0.569171 0.515323 0.289901
121 2 0.79877 0.543011 0.283231
68 1 0.711208 0.815961 0.211539
55 1 0.998649 0.757293 0.176492
25 1 0.669126 0.939199 0.222854
129 2 0.772353 0.978777 0.330089
124 2 0.0444506 0.0176752 0.439706
34 1 0.0629363 0.219575 0.48001
120 2 0.21113 0.307564 0.424
97 1 0.350595 0.319945 0.406732
11 1 0.666512 0.188132 0.495746
33 1 0.52321 0.194834 0.44666
62 1 0.62914 0.275498 0.407261
117 2 0.902967 0.175139 0.404628
19 1 0.0499334 0.428277 0.451774
83 1 0.127515 0.341523 0.439849
15 1 0.362367 0.477284 0.408174
107 2 0.609921 0.498915 0.378034
60 1 0.610661 0.634409 0.441236
21 1 0.381217 0.708231 0.499271
45 1 0.944641 0.761073 0.368289
148 2 0.330785 0.883462 0.341124
61 1 0.832114 0.926785 0.339938
103 2 0.93306 0.887699 0.356488
52 1 0.488654 0.06536 0.507471
89 1 0.343375 0.0440203 0.605662
99 1 0.387049 0.264787 0.646661
122 2 0.362421 0.302894 0.64164
110 2 0.571694 0.174026 0.666558
147 2 0.731386 0.314449 0.522432
67 1 0.0105092 0.469759 0.612372
86 1 0.342725 0.368661 0.563495
26 1 0.869482 0.481361 0.512918
111 2 0.952561 0.335174 0.624057
94 1 0.292744 0.604029 0.542587
144 2 0.946224 0.606624 0.550556
88 1 0.113866 0.725682 0.657926
104 2 0.104565 0.695165 0.583602
13 1 0.23588 0.701704 0.501736
23 1 0.645176 0.699446 0.58354
40 1 0.869815 0.758625 0.598748
16 1 0.161008 0.972105 0.612103
42 1 0.00773689 0.961443 0.529876
134 2 0.0231325 0.899523 0.664371
22 1 0.545086 0.880916 0.564322
79 1 0.511503 0.971759 0.664137
59 1 0.827591 0.945441 0.503686
18 1 0.982942 0.9493 0.580389
66 1 0.890055 0.994625 0.590261
95 1 0.015076 0.14599 0.807773
115 2 0.579809 0.0762358 0.731604
150 2 0.934897 0.0258106 0.768596
71 1 0.184858 0.332029 0.793704
93 1 0.287447 0.333186 0.706442
108 2 0.602818 0.325923 0.72472
74 1 0.775496 0.323273 0.748158
7 1 0.88689 0.303737 0.762847
139 2 0.910836 0.225053 0.764611
65 1 0.153114 0.396789 0.814041
123 2 0.136243 0.448869 0.72165
29 1 0.441277 0.433823 0.731594
1 1 0.543262 0.359015 0.709426
51 1 0.504791 0.397591 0.678804
125 2 0.641888 0.454942 0.672512
38 1 0.770194 0.414419 0.741035
28 1 0.0018285 0.549226 0.750866
39 1 0.114929 0.61541 0.791987
50 1 0.276898 0.663221 0.746949
106 2 0.308591 0.530599 0.709504
140 2 0.681014 0.501214 0.712653
84 1 1.00029 0.507107 0.708856
43 1 0.130625 0.75489 0.782354
76 1 0.168927 0.769157 0.807263
90 1 0.487229 0.81106 0.693013
132 2 0.456178 0.789215 0.72075
58 1 0.571944 0.730684 0.77191
119 2 0.51479 0.713847 0.691735
46 1 0.81389 0.766021 0.724514
63 1 0.938569 0.713472 0.74931
73 1 0.0128788 0.94899 0.753553
48 1 0.306234 0.963763 0.787548
70 1 0.441504 0.900348 0.816408
24 1 0.656696 0.889253 0.739372
92 1 0.550348 0.913228 0.725916
64 1 0.117468 0.0961587 0.840988
69 1 0.324483 0.160295 0.912813
149 2 0.28067 0.110442 0.993149
10 1 0.592064 0.0932896 0.914837
98 1 0.88533 0.0347426 0.834526
17 1 0.216257 0.280981 0.863793
105 2 0.243185 0.177654 0.996828
56 1 0.614748 0.231273 0.998918
135 2 0.895384 0.218668 0.88295
35 1 0.35255 0.407718 0.840582
101 2 0.920398 0.335026 0.982327
138 2 0.526266 0.624055 0.931056
137 2 0.827231 0.631008 0.890655
72 1 0.0273255 0.751008 0.921267
141 2 0.460232 0.719539 0.850314
127 2 0.79076 0.737387 0.928704
30 1 0.884027 0.760308 0.939364
14 1 0.12204 0.910168 0.985515
118 2 0.642328 0.887077 0.979975
31 1 0.691323 0.902484 0.942036
ITEM: TIMESTEP
5
ITEM: NUMBER OF ATOMS
150
ITEM: BOX BOUNDS ss pp pp
-1.9898955139558279e+01 1.9598233576019407e+01
-2.0000000000000000e+01 2.0000000000000000e+01
-2.0000000000000000e+01 2.0000000000000000e+01
ITEM: ATOMS id type xs ys zs
112 2 0.476338 0.0973441 0.146304
130 2 0.409826 0.0937915 0.120632
5 1 0.641192 0.0423228 0.140498
113 2 0.558029 0.0975113 0.14962
82 1 0.00980084 0.310481 0.0675378
87 1 0.473303 0.31849 0.0565884
96 1 0.0866399 0.362184 0.0376499
4 1 0.566407 0.399233 0.114088
36 1 0.633581 0.43266 0.14032
91 1 0.610978 0.476171 0.0307967
54 1 0.774536 0.441073 0.0290128
128 2 0.679445 0.337548 0.154108
57 1 0.871254 0.386812 0.132497
20 1 0.102385 0.551097 0.1319
53 1 0.141692 0.552751 0.0787237
109 2 0.119794 0.524497 0.0503078
75 1 0.255437 0.56391 0.0455911
41 1 0.6075 0.649141 0.119417
126 2 0.0766755 0.698751 0.0487787
2 1 0.320582 0.704387 0.0117876
100 1 0.219429 0.817868 0.0823756
131 2 0.275955 0.790778 0.0309493
143 2 0.26288 0.727519 0.071531
133 2 0.343996 0.698869 0.159948
78 1 0.244808 0.985787 0.0687194
3 1 0.564127 0.974057 0.14182
9 1 0.638473 0.837628 0.110778
32 1 0.833287 0.946694 0.111844
27 1 0.857148 0.938888 0.150399
102 2 0.96071 0.930865 0.0511397
77 1 0.0284955 0.161966 0.278229
142 2 0.000896378 0.137762 0.326216
145 2 0.0804869 0.126566 0.290812
146 2 0.157796 0.110672 0.250115
6 1 0.371904 0.0298141 0.175801
44 1 0.735022 0.0121547 0.252036
8 1 0.876177 0.145014 0.214356
80 1 0.0733167 0.304296 0.266965
114 2 0.435725 0.22967 0.235289
136 2 0.472565 0.302431 0.294522
85 1 0.0600787 0.351269 0.270438
12 1 0.188326 0.386454 0.307381
116 2 0.589002 0.397562 0.286694
49 1 0.243812 0.581378 0.329426
81 1 0.265849 0.595414 0.236257
47 1 0.432108 0.61444 0.292211
37 1 0.569156 0.515245 0.29
121 2 0.799275 0.543016 0.283225
68 1 0.711312 0.815938 0.21154
55 1 0.999023 0.757272 0.176472
25 1 0.669135 0.939193 0.222833
129 2 0.77309 0.978494 0.330122
124 2 0.0443338 0.0177754 0.43949
34 1 0.0624181 0.219386 0.480144
120 2 0.211 0.307616 0.424025
97 1 0.350441 0.319878 0.406675
11 1 0.666545 0.188097 0.495736
33 1 0.523167 0.194841 0.446656
62 1 0.629154 0.275491 0.407255
117 2 0.903571 0.175148 0.404685
19 1 0.0492922 0.428557 0.451701
83 1 0.127665 0.34137 0.439944
15 1 0.362225 0.477303 0.408176
107 2 0.610173 0.499032 0.378035
60 1 0.610673 0.634413 0.441237
21 1 0.381175 0.708276 0.499253
45 1 0.944934 0.760703 0.368352
148 2 0.330797 0.883462 0.341124
61 1 0.831647 0.927194 0.339853
103 2 0.933833 0.887958 0.356451
52 1 0.488589 0.0653598 0.507466
89 1 0.343186 0.0440351 0.605655
99 1 0.386819 0.264774 0.646636
122 2 0.36261 0.302949 0.641671
110 2 0.571879 0.17404 0.666489
147 2 0.731824 0.314474 0.522443
67 1 0.00997248 0.469674 0.612277
86 1 0.342529 0.368634 0.563567
26 1 0.869586 0.481222 0.512842
111 2 0.953283 0.335214 0.623815
94 1 0.292565 0.603867 0.542664
144 2 0.94698 0.606746 0.550502
88 1 0.113388 0.725536 0.657244
104 2 0.104451 0.695307 0.583967
13 1 0.235527 0.70183 0.501648
23 1 0.645234 0.699446 0.583535
40 1 0.869998 0.758723 0.59866
16 1 0.160853 0.972139 0.612128
42 1 0.0070438 0.961347 0.529906
134 2 0.0229118 0.899315 0.66426
22 1 0.545067 0.880915 0.564318
79 1 0.511457 0.971801 0.664142
59 1 0.827654 0.945411 0.503677
18 1 0.983512 0.949197 0.580361
66 1 0.890093 0.994752 0.590293
95 1 0.0142362 0.146226 0.807661
115 2 0.580042 0.0761463 0.731634
150 2 0.935441 0.0257512 0.768776
71 1 0.184667 0.331764 0.793504
93 1 0.287351 0.333135 0.706254
108 2 0.601838 0.326514 0.724474
74 1 0.775562 0.323243 0.74816
7 1 0.887066 0.303488 0.762865
139 2 0.911346 0.225292 0.764126
65 1 0.152561 0.397214 0.814207
123 2 0.136184 0.448895 0.721571
29 1 0.441174 0.433857 0.731596
1 1 0.544522 0.358243 0.709821
51 1 0.504678 0.397707 0.67868
125 2 0.641628 0.454523 0.672027
38 1 0.77038 0.414444 0.741064
28 1 0.00103314 0.549231 0.751012
39 1 0.114752 0.615253 0.792175
50 1 0.276841 0.66316 0.746916
106 2 0.308605 0.530603 0.709505
140 2 0.681681 0.501801 0.713071
84 1 1.00069 0.507122 0.708959
43 1 0.130992 0.755306 0.782815
76 1 0.168231 0.769114 0.806981
90 1 0.486414 0.810435 0.693581
132 2 0.457231 0.789489 0.720074
58 1 0.571854 0.730674 0.771889
119 2 0.514796 0.714222 0.691841
46 1 0.813939 0.766069 0.724543
63 1 0.939006 0.713445 0.749342
73 1 0.0123321 0.949047 0.753812
48 1 0.305965 0.963775 0.787554
70 1 0.441419 0.900307 0.816419
24 1 0.656753 0.889249 0.73937
92 1 0.550346 0.913223 0.725928
64 1 0.117516 0.0959936 0.841131
69 1 0.324317 0.160243 0.912825
149 2 0.280632 0.110564 0.993144
10 1 0.59207 0.0932897 0.914838