ITEM: TIMESTEP
0
ITEM: NUMBER OF ATOMS
12
ITEM: BOX BOUNDS pp pp pp
0.0000000000000000e+00 5.4674500000000004e+00
0.0000000000000000e+00 5.4674500000000004e+00
0.0000000000000000e+00 5.4674500000000004e+00
ITEM: ATOMS id type x y z
1 1 0 0 0
2 1 0 2.73373 2.73373
3 1 2.73373 0 2.73373
4 1 2.73373 2.73373 0
5 2 1.36686 1.36686 4.10059
6 2 1.36686 4.10059 4.10059
7 2 1.36686 4.10059 1.36686
8 2 1.36686 1.36686 1.36686
9 2 4.10059 1.36686 1.36686
10 2 4.10059 4.10059 1.36686
11 2 4.10059 4.10059 4.10059
12 2 4.10059 1.36686 4.10059
ITEM: TIMESTEP
1
ITEM: NUMBER OF ATOMS
12
ITEM: BOX BOUNDS pp pp pp
0.0000000000000000e+00 5.4674500000000004e+00
0.0000000000000000e+00 5.4674500000000004e+00
0.0000000000000000e+00 5.4674500000000004e+00
ITEM: ATOMS id type x y z
1 1 1.61957e-17 1.99915e-17 4.04891e-17
2 1 1.29565e-16 2.73373 2.73373
3 1 2.73373 3.59341e-17 2.73373
4 1 2.73373 2.73373 1.13117e-16
5 2 1.36686 1.36686 4.10059
6 2 1.36686 4.10059 4.10059
7 2 1.36686 4.10059 1.36686
8 2 1.36686 1.36686 1.36686
9 2 4.10059 1.36686 1.36686
10 2 4.10059 4.10059 1.36686
11 2 4.10059 4.10059 4.10059
12 2 4.10059 1.36686 4.10059
ITEM: TIMESTEP
2
ITEM: NUMBER OF ATOMS
12
ITEM: BOX BOUNDS pp pp pp
0.0000000000000000e+00 5.4674500000000004e+00
0.0000000000000000e+00 5.4674500000000004e+00
0.0000000000000000e+00 5.4674500000000004e+00
ITEM: ATOMS id type x y z
1 1 3.55055e-14 1.15538e-13 7.65793e-14
2 1 3.53195e-14 2.73372 2.73372
3 1 2.73372 1.15667e-13 2.73372
4 1 2.73372 2.73372 7.67108e-14
5 2 1.36686 1.36686 4.10059
6 2 1.36686 4.10059 4.10059
7 2 1.36686 4.10059 1.36686
8 2 1.36686 1.36686 1.36686
9 2 4.10059 1.36686 1.36686
10 2 4.10059 4.10059 1.36686
11 2 4.10059 4.10059 4.10059
12 2 4.10059 1.36686 4.10059
ITEM: TIMESTEP
3
ITEM: NUMBER OF ATOMS
12
ITEM: BOX BOUNDS pp pp pp
0.0000000000000000e+00 5.4674500000000004e+00
0.0000000000000000e+00 5.4674500000000004e+00
0.0000000000000000e+00 5.4674500000000004e+00
ITEM: ATOMS id type x y z
1 1 1.53294e-11 4.98977e-11 3.30608e-11
2 1 1.52006e-11 2.73372 2.73372
3 1 2.73372 4.99466e-11 2.73372
4 1 2.73372 2.73372 3.30863e-11
5 2 1.36686 1.36686 4.10059
6 2 1.36686 4.10059 4.10059
7 2 1.36686 4.10059 1.36686
8 2 1.36686 1.36686 1.36686
9 2 4.10059 1.36686 1.36686
10 2 4.10059 4.10059 1.36686
11 2 4.10059 4.10059 4.10059
12 2 4.10059 1.36686 4.10059
ITEM: TIMESTEP
4
ITEM: NUMBER OF ATOMS
12
ITEM: BOX BOUNDS pp pp pp
0.0000000000000000e+00 5.4674500000000004e+00
0.0000000000000000e+00 5.4674500000000004e+00
0.0000000000000000e+00 5.4674500000000004e+00
ITEM: ATOMS id type x y z
1 1 1.29515e-11 4.2166e-11 2.79273e-11
2 1 1.28487e-11 2.73372 2.73372
3 1 2.73372 4.22048e-11 2.73372
4 1 2.73372 2.73372 2.79705e-11
5 2 1.36686 1.36686 4.10059
6 2 1.36686 4.10059 4.10059
7 2 1.36686 4.10059 1.36686
8 2 1.36686 1.36686 1.36686
9 2 4.10059 1.36686 1.36686
10 2 4.10059 4.10059 1.36686
11 2 4.10059 4.10059 4.10059
12 2 4.10059 1.36686 4.10059
ITEM: TIMESTEP
5
ITEM: NUMBER OF ATOMS
12
ITEM: BOX BOUNDS pp pp pp
0.0000000000000000e+00 5.4674500000000004e+00
0.0000000000000000e+00 5.4674500000000004e+00
0.0000000000000000e+00 5.4674500000000004e+00
ITEM: ATOMS id type x y z
1 1 1.29515e-11 4.2166e-11 2.79273e-11
2 1 1.28487e-11 2.73372 2.73372
3 1 2.73372 4.22048e-11 2.73372
4 1 2.73372 2.73372 2.79705e-11
5 2 1.36686 1.36686 4.10059
6 2 1.36686 4.10059 4.10059
7 2 1.36686 4.10059 1.36686
8 2 1.36686 1.36686 1.36686
9 2 4.10059 1.36686 1.36686
10 2 4.10059 4.10059 1.36686
11 2 4.10059 4.10059 4.10059
12 2 4.10059 1.36686 4.10059
