ITEM: TIMESTEP
0
ITEM: NUMBER OF ATOMS
6
ITEM: BOX BOUNDS pp pp pp
0.0000000000000000e+00 5.0780000000000003e+00
0.0000000000000000e+00 5.0780000000000003e+00
0.0000000000000000e+00 3.5670000000000002e+00
ITEM: ATOMS id type xs ys zs
1 1 0 0 0
2 1 0.50558 0.50558 0.50973
3 2 0.18943 0.82173 0.50973
4 2 0.82173 0.18943 0.50973
5 2 0.69501 0.69501 0
6 2 0.31615 0.31615 0
ITEM: TIMESTEP
1
ITEM: NUMBER OF ATOMS
6
ITEM: BOX BOUNDS pp pp pp
0.0000000000000000e+00 5.0780000000000003e+00
0.0000000000000000e+00 5.0780000000000003e+00
0.0000000000000000e+00 3.5670000000000002e+00
ITEM: ATOMS id type xs ys zs
1 1 0.00267231 0.00267231 0.00815062
2 1 0.505613 0.505613 0.502327
3 2 0.209123 0.803671 0.504364
4 2 0.803671 0.209123 0.504364
5 2 0.701601 0.701601 0.00495663
6 2 0.30522 0.30522 0.0050278
ITEM: TIMESTEP
2
ITEM: NUMBER OF ATOMS
6
ITEM: BOX BOUNDS pp pp pp
0.0000000000000000e+00 5.0780000000000003e+00
0.0000000000000000e+00 5.0780000000000003e+00
0.0000000000000000e+00 3.5670000000000002e+00
ITEM: ATOMS id type xs ys zs
1 1 0.00182358 0.00182358 0.00894652
2 1 0.503395 0.503395 0.501776
3 2 0.209736 0.804028 0.507511
4 2 0.804028 0.209736 0.507511
5 2 0.711448 0.711448 0.00154978
6 2 0.297471 0.297471 0.00189474
ITEM: TIMESTEP
3
ITEM: NUMBER OF ATOMS
6
ITEM: BOX BOUNDS pp pp pp
0.0000000000000000e+00 5.0780000000000003e+00
0.0000000000000000e+00 5.0780000000000003e+00
0.0000000000000000e+00 3.5670000000000002e+00
ITEM: ATOMS id type xs ys zs
1 1 -0.00915907 -0.00915907 0.0206353
2 1 0.498507 0.498507 0.491669
3 2 0.229428 0.790935 0.514496
4 2 0.790935 0.229428 0.514496
5 2 0.726902 0.726902 -0.00682862
6 2 0.291286 0.291286 -0.0052771
ITEM: TIMESTEP
4
ITEM: NUMBER OF ATOMS
6
ITEM: BOX BOUNDS pp pp pp
0.0000000000000000e+00 5.0780000000000003e+00
0.0000000000000000e+00 5.0780000000000003e+00
0.0000000000000000e+00 3.5670000000000002e+00
ITEM: ATOMS id type xs ys zs
1 1 -0.0146215 -0.0146215 0.0243792
2 1 0.498084 0.498084 0.488382
3 2 0.236743 0.786431 0.516053
4 2 0.786431 0.236743 0.516053
5 2 0.73266 0.73266 -0.00868834
6 2 0.288603 0.288603 -0.0069891
ITEM: TIMESTEP
5
ITEM: NUMBER OF ATOMS
6
ITEM: BOX BOUNDS pp pp pp
0.0000000000000000e+00 5.0780000000000003e+00
0.0000000000000000e+00 5.0780000000000003e+00
0.0000000000000000e+00 3.5670000000000002e+00
ITEM: ATOMS id type xs ys zs
1 1 -0.0167862 -0.0167862 0.0297156
2 1 0.499536 0.499536 0.484766
3 2 0.247668 0.779911 0.516677
4 2 0.779911 0.247668 0.516677
5 2 0.734198 0.734198 -0.0103992
6 2 0.283373 0.283373 -0.00824636
ITEM: TIMESTEP
6
ITEM: NUMBER OF ATOMS
6
ITEM: BOX BOUNDS pp pp pp
0.0000000000000000e+00 5.0780000000000003e+00
0.0000000000000000e+00 5.0780000000000003e+00
0.0000000000000000e+00 3.5670000000000002e+00
ITEM: ATOMS id type xs ys zs
1 1 -0.0144202 -0.0144202 0.0315552
2 1 0.500255 0.500255 0.483907
3 2 0.249215 0.779318 0.516433
4 2 0.779318 0.249215 0.516433
5 2 0.732159 0.732159 -0.0106844
6 2 0.281375 0.281375 -0.00845338
ITEM: TIMESTEP
7
ITEM: NUMBER OF ATOMS
6
ITEM: BOX BOUNDS pp pp pp
0.0000000000000000e+00 5.0780000000000003e+00
0.0000000000000000e+00 5.0780000000000003e+00
0.0000000000000000e+00 3.5670000000000002e+00
ITEM: ATOMS id type xs ys zs
1 1 -0.00636235 -0.00636235 0.0497562
2 1 0.505533 0.505533 0.47384
3 2 0.254022 0.778431 0.513619
4 2 0.778431 0.254022 0.513619
5 2 0.734594 0.734594 -0.00907836
6 2 0.261682 0.261682 -0.0125664
ITEM: TIMESTEP
8
ITEM: NUMBER OF ATOMS
6
ITEM: BOX BOUNDS pp pp pp
0.0000000000000000e+00 5.0780000000000003e+00
0.0000000000000000e+00 5.0780000000000003e+00
0.0000000000000000e+00 3.5670000000000002e+00
ITEM: ATOMS id type xs ys zs
1 1 -0.00482493 -0.00482493 0.0507737
2 1 0.505565 0.505565 0.472819
3 2 0.254348 0.777843 0.513794
4 2 0.777843 0.254348 0.513794
5 2 0.735404 0.735404 -0.00908641
6 2 0.259565 0.259565 -0.0129039
ITEM: TIMESTEP
9
ITEM: NUMBER OF ATOMS
6
ITEM: BOX BOUNDS pp pp pp
0.0000000000000000e+00 5.0780000000000003e+00
0.0000000000000000e+00 5.0780000000000003e+00
0.0000000000000000e+00 3.5670000000000002e+00
ITEM: ATOMS id type xs ys zs
1 1 0.00153906 0.00153906 0.0421744
2 1 0.499054 0.499054 0.471376
3 2 0.252175 0.771189 0.519785
4 2 0.771189 0.252175 0.519785
5 2 0.742802 0.742802 -0.0111622
6 2 0.261142 0.261142 -0.0127685
ITEM: TIMESTEP
10
ITEM: NUMBER OF ATOMS
6
ITEM: BOX BOUNDS pp pp pp
0.0000000000000000e+00 5.0780000000000003e+00
0.0000000000000000e+00 5.0780000000000003e+00
0.0000000000000000e+00 3.5670000000000002e+00
ITEM: ATOMS id type xs ys zs
1 1 0.00344799 0.00344799 0.0413452
2 1 0.497195 0.497195 0.469748
3 2 0.249225 0.770955 0.520672
4 2 0.770955 0.249225 0.520672
5 2 0.742296 0.742296 -0.0111214
6 2 0.264782 0.264782 -0.0121249
ITEM: TIMESTEP
11
ITEM: NUMBER OF ATOMS
6
ITEM: BOX BOUNDS pp pp pp
0.0000000000000000e+00 5.0780000000000003e+00
0.0000000000000000e+00 5.0780000000000003e+00
0.0000000000000000e+00 3.5670000000000002e+00
ITEM: ATOMS id type xs ys zs
1 1 0.00417371 0.00417371 0.0413164
2 1 0.496982 0.496982 0.468948
3 2 0.248338 0.770336 0.520707
4 2 0.770336 0.248338 0.520707
5 2 0.743143 0.743143 -0.0107506
6 2 0.264927 0.264927 -0.0117373
ITEM: TIMESTEP
12
ITEM: NUMBER OF ATOMS
6
ITEM: BOX BOUNDS pp pp pp
0.0000000000000000e+00 5.0780000000000003e+00
0.0000000000000000e+00 5.0780000000000003e+00
0.0000000000000000e+00 3.5670000000000002e+00
ITEM: ATOMS id type xs ys zs
1 1 0.00412455 0.00412455 0.0415316
2 1 0.49742 0.49742 0.468785
3 2 0.248573 0.769633 0.520668
4 2 0.769633 0.248573 0.520668
5 2 0.743423 0.743423 -0.0106504
6 2 0.264726 0.264726 -0.011812
ITEM: TIMESTEP
13
ITEM: NUMBER OF ATOMS
6
ITEM: BOX BOUNDS pp pp pp
0.0000000000000000e+00 5.0780000000000003e+00
0.0000000000000000e+00 5.0780000000000003e+00
0.0000000000000000e+00 3.5670000000000002e+00
ITEM: ATOMS id type xs ys zs
1 1 0.00421306 0.00421306 0.0427493
2 1 0.499484 0.499484 0.467818
3 2 0.247575 0.768997 0.520853
4 2 0.768997 0.247575 0.520853
5 2 0.743327 0.743327 -0.010674
6 2 0.264303 0.264303 -0.0124083
ITEM: TIMESTEP
14
ITEM: NUMBER OF ATOMS
6
ITEM: BOX BOUNDS pp pp pp
0.0000000000000000e+00 5.0780000000000003e+00
0.0000000000000000e+00 5.0780000000000003e+00
0.0000000000000000e+00 3.5670000000000002e+00
ITEM: ATOMS id type xs ys zs
1 1 0.00375865 0.00375865 0.043868
2 1 0.501324 0.501324 0.466817
3 2 0.246656 0.768128 0.5212
4 2 0.768128 0.246656 0.5212
5 2 0.743387 0.743387 -0.0108711
6 2 0.264646 0.264646 -0.0130251
ITEM: TIMESTEP
15
ITEM: NUMBER OF ATOMS
6
ITEM: BOX BOUNDS pp pp pp
0.0000000000000000e+00 5.0780000000000003e+00
0.0000000000000000e+00 5.0780000000000003e+00
0.0000000000000000e+00 3.5670000000000002e+00
ITEM: ATOMS id type xs ys zs
1 1 0.00404319 0.00404319 0.044642
2 1 0.502675 0.502675 0.465845
3 2 0.245902 0.7671 0.52179
4 2 0.7671 0.245902 0.52179
5 2 0.743289 0.743289 -0.011465
6 2 0.26489 0.26489 -0.0134127
ITEM: TIMESTEP
16
ITEM: NUMBER OF ATOMS
6
ITEM: BOX BOUNDS pp pp pp
0.0000000000000000e+00 5.0780000000000003e+00
0.0000000000000000e+00 5.0780000000000003e+00
0.0000000000000000e+00 3.5670000000000002e+00
ITEM: ATOMS id type xs ys zs
1 1 0.00431001 0.00431001 0.0449026
2 1 0.503084 0.503084 0.46524
3 2 0.245347 0.766649 0.522224
4 2 0.766649 0.245347 0.522224
5 2 0.743669 0.743669 -0.0119675
6 2 0.264841 0.264841 -0.0134334
ITEM: TIMESTEP
17
ITEM: NUMBER OF ATOMS
6
ITEM: BOX BOUNDS pp pp pp
0.0000000000000000e+00 5.0780000000000003e+00
0.0000000000000000e+00 5.0780000000000003e+00
0.0000000000000000e+00 3.5670000000000002e+00
ITEM: ATOMS id type xs ys zs
1 1 0.00430674 0.00430674 0.0450701
2 1 0.503045 0.503045 0.464886
3 2 0.24522 0.766388 0.522395
4 2 0.766388 0.24522 0.522395
5 2 0.743856 0.743856 -0.0122504
6 2 0.265085 0.265085 -0.0133051
ITEM: TIMESTEP
18
ITEM: NUMBER OF ATOMS
6
ITEM: BOX BOUNDS pp pp pp
0.0000000000000000e+00 5.0780000000000003e+00
0.0000000000000000e+00 5.0780000000000003e+00
0.0000000000000000e+00 3.5670000000000002e+00
ITEM: ATOMS id type xs ys zs
1 1 0.00448724 0.00448724 0.0451394
2 1 0.503056 0.503056 0.464781
3 2 0.245174 0.766385 0.522434
4 2 0.766385 0.245174 0.522434
5 2 0.7438 0.7438 -0.0123353
6 2 0.264998 0.264998 -0.0132638
ITEM: TIMESTEP
19
ITEM: NUMBER OF ATOMS
6
ITEM: BOX BOUNDS pp pp pp
0.0000000000000000e+00 5.0780000000000003e+00
0.0000000000000000e+00 5.0780000000000003e+00
0.0000000000000000e+00 3.5670000000000002e+00
ITEM: ATOMS id type xs ys zs
1 1 0.00464178 0.00464178 0.045551
2 1 0.503081 0.503081 0.464199
3 2 0.244967 0.766253 0.52266
4 2 0.766253 0.244967 0.52266
5 2 0.743918 0.743918 -0.0127378
6 2 0.265039 0.265039 -0.0131426
ITEM: TIMESTEP
20
ITEM: NUMBER OF ATOMS
6
ITEM: BOX BOUNDS pp pp pp
0.0000000000000000e+00 5.0780000000000003e+00
0.0000000000000000e+00 5.0780000000000003e+00
0.0000000000000000e+00 3.5670000000000002e+00
ITEM: ATOMS id type xs ys zs
1 1 0.00448166 0.00448166 0.0458873
2 1 0.503134 0.503134 0.463801
3 2 0.244927 0.766064 0.522831
4 2 0.766064 0.244927 0.522831
5 2 0.74406 0.74406 -0.0129982
6 2 0.265233 0.265233 -0.0131615
ITEM: TIMESTEP
21
ITEM: NUMBER OF ATOMS
6
ITEM: BOX BOUNDS pp pp pp
0.0000000000000000e+00 5.0780000000000003e+00
0.0000000000000000e+00 5.0780000000000003e+00
0.0000000000000000e+00 3.5670000000000002e+00
ITEM: ATOMS id type xs ys zs
1 1 0.00462087 0.00462087 0.0459379
2 1 0.503179 0.503179 0.463765
3 2 0.244928 0.766073 0.522852
4 2 0.766073 0.244928 0.522852
5 2 0.743978 0.743978 -0.0130274
6 2 0.265122 0.265122 -0.0131899
ITEM: TIMESTEP
22
ITEM: NUMBER OF ATOMS
6
ITEM: BOX BOUNDS pp pp pp
0.0000000000000000e+00 5.0780000000000003e+00
0.0000000000000000e+00 5.0780000000000003e+00
0.0000000000000000e+00 3.5670000000000002e+00
ITEM: ATOMS id type xs ys zs
1 1 0.0045467 0.0045467 0.0464093
2 1 0.503466 0.503466 0.463415
3 2 0.24491 0.766049 0.52304
4 2 0.766049 0.24491 0.52304
5 2 0.743956 0.743956 -0.0131671
6 2 0.264972 0.264972 -0.0135481
ITEM: TIMESTEP
23
ITEM: NUMBER OF ATOMS
6
ITEM: BOX BOUNDS pp pp pp
0.0000000000000000e+00 5.0780000000000003e+00
0.0000000000000000e+00 5.0780000000000003e+00
0.0000000000000000e+00 3.5670000000000002e+00
ITEM: ATOMS id type xs ys zs
1 1 0.0044946 0.0044946 0.0465113
2 1 0.503504 0.503504 0.463328
3 2 0.244907 0.76602 0.523075
4 2 0.76602 0.244907 0.523075
5 2 0.743965 0.743965 -0.0131944
6 2 0.265011 0.265011 -0.0136041
ITEM: TIMESTEP
24
ITEM: NUMBER OF ATOMS
6
ITEM: BOX BOUNDS pp pp pp
0.0000000000000000e+00 5.0780000000000003e+00
0.0000000000000000e+00 5.0780000000000003e+00
0.0000000000000000e+00 3.5670000000000002e+00
ITEM: ATOMS id type xs ys zs
1 1 0.00451965 0.00451965 0.0466467
2 1 0.503497 0.503497 0.463161
3 2 0.244874 0.765942 0.523112
4 2 0.765942 0.244874 0.523112
5 2 0.743956 0.743956 -0.0132472
6 2 0.265111 0.265111 -0.0135944
ITEM: TIMESTEP
25
ITEM: NUMBER OF ATOMS
6
ITEM: BOX BOUNDS pp pp pp
0.0000000000000000e+00 5.0780000000000003e+00
0.0000000000000000e+00 5.0780000000000003e+00
0.0000000000000000e+00 3.5670000000000002e+00
ITEM: ATOMS id type xs ys zs
1 1 0.0046301 0.0046301 0.0469176
2 1 0.503513 0.503513 0.462812
3 2 0.244753 0.765851 0.52322
4 2 0.765851 0.244753 0.52322
5 2 0.74402 0.74402 -0.0133803
6 2 0.265131 0.265131 -0.0136001
ITEM: TIMESTEP
26
ITEM: NUMBER OF ATOMS
6
ITEM: BOX BOUNDS pp pp pp
0.0000000000000000e+00 5.0780000000000003e+00
0.0000000000000000e+00 5.0780000000000003e+00
0.0000000000000000e+00 3.5670000000000002e+00
ITEM: ATOMS id type xs ys zs
1 1 0.00460559 0.00460559 0.0470401
2 1 0.503552 0.503552 0.462675
3 2 0.244725 0.765807 0.523294
4 2 0.765807 0.244725 0.523294
5 2 0.744091 0.744091 -0.0134556
6 2 0.26512 0.26512 -0.0136566
ITEM: TIMESTEP
27
ITEM: NUMBER OF ATOMS
6
ITEM: BOX BOUNDS pp pp pp
0.0000000000000000e+00 5.0780000000000003e+00
0.0000000000000000e+00 5.0780000000000003e+00
0.0000000000000000e+00 3.5670000000000002e+00
ITEM: ATOMS id type xs ys zs
1 1 0.0046118 0.0046118 0.0473498
2 1 0.503716 0.503716 0.462392
3 2 0.244738 0.765698 0.523484
4 2 0.765698 0.244738 0.523484
5 2 0.744086 0.744086 -0.0136604
6 2 0.265051 0.265051 -0.0138601
ITEM: TIMESTEP
28
ITEM: NUMBER OF ATOMS
6
ITEM: BOX BOUNDS pp pp pp
0.0000000000000000e+00 5.0780000000000003e+00
0.0000000000000000e+00 5.0780000000000003e+00
0.0000000000000000e+00 3.5670000000000002e+00
ITEM: ATOMS id type xs ys zs
1 1 0.00454386 0.00454386 0.0478103
2 1 0.50401 0.50401 0.461964
3 2 0.244661 0.765568 0.523711
4 2 0.765568 0.244661 0.523711
5 2 0.744071 0.744071 -0.0138924
6 2 0.265045 0.265045 -0.0141138
ITEM: TIMESTEP
29
ITEM: NUMBER OF ATOMS
6
ITEM: BOX BOUNDS pp pp pp
0.0000000000000000e+00 5.0780000000000003e+00
0.0000000000000000e+00 5.0780000000000003e+00
0.0000000000000000e+00 3.5670000000000002e+00
ITEM: ATOMS id type xs ys zs
1 1 0.00456809 0.00456809 0.0480179
2 1 0.504145 0.504145 0.461743
3 2 0.244524 0.765545 0.523748
4 2 0.765545 0.244524 0.523748
5 2 0.744078 0.744078 -0.0139334
6 2 0.26504 0.26504 -0.0141339
ITEM: TIMESTEP
30
ITEM: NUMBER OF ATOMS
6
ITEM: BOX BOUNDS pp pp pp
0.0000000000000000e+00 5.0780000000000003e+00
0.0000000000000000e+00 5.0780000000000003e+00
0.0000000000000000e+00 3.5670000000000002e+00
ITEM: ATOMS id type xs ys zs
1 1 0.00458528 0.00458528 0.0482267
2 1 0.504302 0.504302 0.461514
3 2 0.244408 0.765385 0.523756
4 2 0.765385 0.244408 0.523756
5 2 0.744116 0.744116 -0.0139577
6 2 0.265103 0.265103 -0.0141049
ITEM: TIMESTEP
31
ITEM: NUMBER OF ATOMS
6
ITEM: BOX BOUNDS pp pp pp
0.0000000000000000e+00 5.0780000000000003e+00
0.0000000000000000e+00 5.0780000000000003e+00
0.0000000000000000e+00 3.5670000000000002e+00
ITEM: ATOMS id type xs ys zs
1 1 0.00463663 0.00463663 0.0482685
2 1 0.504377 0.504377 0.461461
3 2 0.244363 0.765297 0.523781
4 2 0.765297 0.244363 0.523781
5 2 0.744137 0.744137 -0.0139978
6 2 0.265089 0.265089 -0.0141036
ITEM: TIMESTEP
32
ITEM: NUMBER OF ATOMS
6
ITEM: BOX BOUNDS pp pp pp
0.0000000000000000e+00 5.0780000000000003e+00
0.0000000000000000e+00 5.0780000000000003e+00
0.0000000000000000e+00 3.5670000000000002e+00
ITEM: ATOMS id type xs ys zs
1 1 0.00463974 0.00463974 0.0482665
2 1 0.504437 0.504437 0.461455
3 2 0.244314 0.765239 0.523816
4 2 0.765239 0.244314 0.523816
5 2 0.744175 0.744175 -0.0140437
6 2 0.265095 0.265095 -0.0141206
ITEM: TIMESTEP
33
ITEM: NUMBER OF ATOMS
6
ITEM: BOX BOUNDS pp pp pp
0.0000000000000000e+00 5.0780000000000003e+00
0.0000000000000000e+00 5.0780000000000003e+00
0.0000000000000000e+00 3.5670000000000002e+00
ITEM: ATOMS id type xs ys zs
1 1 0.00463974 0.00463974 0.0482665
2 1 0.504437 0.504437 0.461455
3 2 0.244314 0.765239 0.523816
4 2 0.765239 0.244314 0.523816
5 2 0.744175 0.744175 -0.0140437
6 2 0.265095 0.265095 -0.0141206
