ITEM: TIMESTEP
0
ITEM: NUMBER OF ATOMS
12
ITEM: BOX BOUNDS pp pp pp
0.0000000000000000e+00 6.5117329500000016e+00
0.0000000000000000e+00 6.5117329500000016e+00
0.0000000000000000e+00 6.5117329500000016e+00
ITEM: ATOMS id type xs ys zs
1 1 0 0 0
2 1 0 0.5 0.5
3 1 0.5 0 0.5
4 1 0.5 0.5 0
5 2 0.25 0.25 0.75
6 2 0.25 0.75 0.75
7 2 0.25 0.75 0.25
8 2 0.25 0.25 0.25
9 2 0.75 0.25 0.25
10 2 0.75 0.75 0.25
11 2 0.75 0.75 0.75
12 2 0.75 0.25 0.75
ITEM: TIMESTEP
1
ITEM: NUMBER OF ATOMS
12
ITEM: BOX BOUNDS pp pp pp
0.0000000000000000e+00 6.5117329500000016e+00
0.0000000000000000e+00 6.5117329500000016e+00
0.0000000000000000e+00 6.5117329500000016e+00
ITEM: ATOMS id type xs ys zs
1 1 0 -4.35249e-17 -2.63787e-18
2 1 5.62747e-17 0.5 0.5
3 1 0.5 -3.92384e-17 0.5
4 1 0.5 0.5 1.31014e-16
5 2 0.25 0.25 0.75
6 2 0.25 0.75 0.75
7 2 0.25 0.75 0.25
8 2 0.25 0.25 0.25
9 2 0.75 0.25 0.25
10 2 0.75 0.75 0.25
11 2 0.75 0.75 0.75
12 2 0.75 0.25 0.75
ITEM: TIMESTEP
2
ITEM: NUMBER OF ATOMS
12
ITEM: BOX BOUNDS pp pp pp
0.0000000000000000e+00 6.5117329500000016e+00
0.0000000000000000e+00 6.5117329500000016e+00
0.0000000000000000e+00 6.5117329500000016e+00
ITEM: ATOMS id type xs ys zs
1 1 0 -4.35249e-17 -2.63787e-18
2 1 5.62747e-17 0.5 0.5
3 1 0.5 -3.92384e-17 0.5
4 1 0.5 0.5 1.31014e-16
5 2 0.25 0.25 0.75
6 2 0.25 0.75 0.75
7 2 0.25 0.75 0.25
8 2 0.25 0.25 0.25
9 2 0.75 0.25 0.25
10 2 0.75 0.75 0.25
11 2 0.75 0.75 0.75
12 2 0.75 0.25 0.75
