LAMMPS (2 Aug 2023 - Update 3)
OMP_NUM_THREADS environment is not set. Defaulting to 1 thread. (src/comm.cpp:98)
  using 1 OpenMP thread(s) per MPI task
Loaded 1 plugins from C:\Users\user\AppData\Local\LAMMPS 64-bit 2Aug2023\plugins
# Find minimum energy fcc configuration

# ---------- Initialize Simulation ---------------------
clear
OMP_NUM_THREADS environment is not set. Defaulting to 1 thread. (src/comm.cpp:98)
  using 1 OpenMP thread(s) per MPI task
Loaded 1 plugins from C:\Users\user\AppData\Local\LAMMPS 64-bit 2Aug2023\plugins
# 'metal' uses Angstroms and eV, among other units
units metal
dimension 3
boundary p p p
atom_style charge
atom_modify map array

# ---------- Create Atoms ---------------------
region box block -20 20 -20 20 -20 20
# region 	box block 0 1 0 1 0 1 units lattice
create_box	2 box    # Changed to 2 types of atoms
Created orthogonal box = (-20 -20 -20) to (20 20 20)
  1 by 1 by 1 MPI processor grid
#lattice	fcc 4 orient x 1 0 0 orient y 0 1 0 orient z 0 0 1

create_atoms 1 random 100 54321 box  # First type of atom
Created 100 atoms
  using lattice units in orthogonal box = (-20 -20 -20) to (20 20 20)
  create_atoms CPU = 0.001 seconds
create_atoms 2 random 50 12345 box # Second type of atom
Created 50 atoms
  using lattice units in orthogonal box = (-20 -20 -20) to (20 20 20)
  create_atoms CPU = 0.000 seconds

# Set masses for each atom type
mass 1 16.0   # Mass for Oxygen (type 1) in atomic mass units (amu)
mass 2 140.0  # Mass for Cerium (type 2) in atomic mass units (amu)

# ---------- Define Interatomic Potential ---------------------
pair_style reaxff NULL checkqeq no # Don't fix charge
pair_coeff * * ffield.reax O Ce
neighbor 2.0 bin
neigh_modify delay 10 check yes

# ---------- Define Settings ---------------------
compute eng all pe/atom
compute eatoms all reduce sum c_eng

# ---------- Run Minimization ---------------------
reset_timestep 0
# fix 1 all box/relax iso 1.0 vmax 1
thermo 1
thermo_style custom step pe lx ly lz press pxx pyy pzz c_eatoms
min_style cg
minimize 1e-25 1e-25 5000 10000

CITE-CITE-CITE-CITE-CITE-CITE-CITE-CITE-CITE-CITE-CITE-CITE-CITE

Your simulation uses code contributions which should be cited:

- pair reaxff command: doi:10.1016/j.parco.2011.08.005

@Article{Aktulga12,
 author = {H. M. Aktulga and J. C. Fogarty and S. A. Pandit and A. Y. Grama},
 title = {Parallel Reactive Molecular Dynamics: {N}umerical Methods and Algorithmic Techniques},
 journal = {Parallel Computing},
 year =    2012,
 volume =  38,
 number =  {4--5},
 pages =   {245--259}
}

CITE-CITE-CITE-CITE-CITE-CITE-CITE-CITE-CITE-CITE-CITE-CITE-CITE

Switching to 'neigh_modify every 1 delay 0 check yes' setting during minimization
Neighbor list info ...
  update: every = 1 steps, delay = 0 steps, check = yes
  max neighbors/atom: 2000, page size: 100000
  master list distance cutoff = 12
  ghost atom cutoff = 12
  binsize = 6, bins = 7 7 7
  1 neighbor lists, perpetual/occasional/extra = 1 0 0
  (1) pair reaxff, perpetual
      attributes: half, newton off, ghost
      pair build: half/bin/newtoff/ghost
      stencil: full/ghost/bin/3d
      bin: standard
Per MPI rank memory allocation (min/avg/max) = 12.83 | 12.83 | 12.83 Mbytes
   Step         PotEng           Lx             Ly             Lz           Press           Pxx            Pyy            Pzz          c_eatoms   
         0   1212.91        40             40             40             61139.141      75631.524      66920.897      40865.002      1212.91      
         1  -96.278622      40             40             40             29335.207      43759.796      33151.903      11093.921     -96.278622    
         2  -817.0116       40             40             40             1050.9041      7669.9657      4197.1501     -8714.4037     -817.0116     
         3  -1077.0805      40             40             40            -12153.168     -10758.423     -10481.847     -15219.233     -1077.0805    
         4  -1186.6298      40             40             40            -17958.896     -19605.896     -16784.847     -17485.945     -1186.6298    
         5  -1273.2813      40             40             40            -17769.478     -20974.036     -16037.461     -16296.938     -1273.2813    
         6  -1408.2068      40             40             40            -21215.03      -25257.076     -17131.992     -21256.022     -1408.2068    
         7  -1693.6455      40             40             40            -31153.464     -31753.9       -29528.931     -32177.561     -1693.6455    
         8  -1875.015       40             40             40            -11575.82      -14427.908     -13578.176     -6721.3765     -1875.015     
         9  -1894.9015      40             40             40            -4319.633      -4591.6582     -6848.9271     -1518.3136     -1894.9015    
        10  -1999.1966      40             40             40            -10455.772     -8239.0619     -10045.041     -13083.214     -1999.1966    
        11  -2063.5157      40             40             40            -21476.163     -19560.221     -22879.899     -21988.37      -2063.5157    
        12  -2155.3326      40             40             40            -21787.753     -25528.875     -18275.681     -21558.702     -2155.3326    
        13  -2252.5575      40             40             40            -12529.042     -14495.962     -7452.1838     -15638.98      -2252.5575    
        14  -2347.3689      40             40             40            -8780.9946     -733.84353     -7923.3357     -17685.804     -2347.3689    
        15  -2479.6377      40             40             40            -4262.4723      2088.4809     -3894.8995     -10980.998     -2479.6377    
        16  -2585.3133      40             40             40            -2992.2999     -5163.1631     -3145.6406     -668.09607     -2585.3133    
        17  -2615.1069      40             40             40            -5555.4202     -7544.9468     -1828.4939     -7292.82       -2615.1069    
        18  -2637.9344      40             40             40            -9944.1502     -6305.0571     -10247.533     -13279.86      -2637.9344    
        19  -2699.8283      40             40             40            -10238.807     -7791.6052     -6301.7696     -16623.045     -2699.8283    
        20  -2759.2126      40             40             40            -3374.5917     -2808.3495     -1406.2999     -5909.1257     -2759.2126    
        21  -2778.3001      40             40             40            -3903.9172     -4380.7537     -5464.4151     -1866.5828     -2778.3001    
        22  -2813.4387      40             40             40            -3970.2213     -4415.0719     -4370.7336     -3124.8583     -2813.4387    
        23  -2841.3034      40             40             40            -7764.0318     -8863.7646     -1679.6998     -12748.631     -2841.3034    
        24  -2874.028       40             40             40            -5806.3157     -7183.8995     -1176.099      -9058.9487     -2874.028     
        25  -2903.4819      40             40             40            -5421.0487     -6254.9038     -6463.9607     -3544.2816     -2903.4819    
        26  -2941.2517      40             40             40            -1948.839      -9671.6764     -980.57322      4805.7326     -2941.2517    
        27  -2956.2084      40             40             40             2871.1571     -935.30692      2375.1312      7173.647      -2956.2084    
        28  -3003.3072      40             40             40            -602.20391      2380.0631     -2425.3146     -1761.3602     -3003.3072    
        29  -3016.4079      40             40             40            -5014.3744     -4682.1247     -5250.6955     -5110.303      -3016.4079    
        30  -3039.9843      40             40             40            -4388.3367     -5698.2376     -3772.8376     -3693.9349     -3039.9843    
        31  -3100.291       40             40             40            -4974.4965     -2753.6743     -7640.0052     -4529.8102     -3100.291     
        32  -3112.9153      40             40             40            -2891.904      -1470.7424     -4561.2127     -2643.7568     -3112.9153    
        33  -3121.2327      40             40             40            -2161.604      -3502.1708     -1028.0994     -1954.5416     -3121.2327    
        34  -3126.0548      40             40             40            -3515.7393     -4163.6001     -3507.6705     -2875.9471     -3126.0548    
        35  -3150.0882      40             40             40            -4134.5569     -3581.1361     -5756.7316     -3065.8029     -3150.0882    
        36  -3157.6316      40             40             40            -1687.3609     -2699.8413     -515.36479     -1846.8767     -3157.6316    
        37  -3173.0921      40             40             40            -1299.5056     -2388.6705      714.8136      -2224.6598     -3173.0921    
        38  -3204.5891      40             40             40            -5527.3593     -4446.1311     -7105.7872     -5030.1597     -3204.5891    
        39  -3227.974       40             40             40            -4673.1797     -3594.1149     -6325.0586     -4100.3654     -3227.974     
        40  -3235.5317      40             40             40            -1241.1063     -1671.4145      347.36826     -2399.2727     -3235.5317    
        41  -3264.3248      40             40             40            -3480.3026     -7870.5427     -179.52042     -2390.8446     -3264.3248    
        42  -3304.36        40             40             40             925.27426      2342.7017      2693.1146     -2259.9936     -3304.36      
        43  -3321.6947      40             40             40            -2323.6441      248.22075     -3345.2921     -3873.861      -3321.6947    
        44  -3324.8493      40             40             40            -762.36314      1580.3064     -757.98867     -3109.4072     -3324.8493    
        45  -3338.1708      40             40             40            -740.91557      1369.4442      88.939583     -3681.1305     -3338.1708    
        46  -3345.7006      40             40             40            -1594.1771     -1703.2894      576.91618     -3656.1582     -3345.7006    
        47  -3352.4281      40             40             40            -772.30992     -741.24447      3176.5299     -4752.2152     -3352.4281    
        48  -3360.5692      40             40             40             2188.2102      3464.7404      5714.887      -2614.9968     -3360.5692    
        49  -3372.4221      40             40             40             1853.1192      2147.5035      6676.2204     -3264.3663     -3372.4221    
        50  -3384.1483      40             40             40            -2129.547      -2827.8335      649.64575     -4210.4534     -3384.1483    
        51  -3397.9878      40             40             40            -4218.5557     -5352.4154     -1252.6014     -6050.6504     -3397.9878    
        52  -3410.6287      40             40             40            -1514.2409     -495.46461      492.23274     -4539.4908     -3410.6287    
        53  -3424.8075      40             40             40             685.32234      3160.1921      60.832908     -1165.058      -3424.8075    
        54  -3444.7517      40             40             40             695.03334      2292.8369      1212.8968     -1420.6337     -3444.7517    
        55  -3461.5848      40             40             40            -4676.9994     -4807.234      -2253.8526     -6969.9115     -3461.5848    
        56  -3509.5762      40             40             40            -5278.7573     -6026.926      -1414.7244     -8394.6216     -3509.5762    
        57  -3526.7115      40             40             40            -898.31778     -2020.6249      672.70858     -1347.037      -3526.7115    
        58  -3527.57        40             40             40             180.89392     -348.72497      634.22707      257.17966     -3527.57      
        59  -3527.821       40             40             40             441.27913      206.94045      1189.7481     -72.851211     -3527.821     
        60  -3528.0468      40             40             40             506.44978      715.41471      643.28541      160.64921     -3528.0468    
        61  -3529.302       40             40             40             1253.8956      1527.9849      1302.1793      931.52251     -3529.302     
        62  -3532.4693      40             40             40            -1098.3163     -693.55312     -1480.7235     -1120.6722     -3532.4693    
        63  -3533.6106      40             40             40            -694.28742     -1066.7036      1316.6335     -2332.7922     -3533.6106    
        64  -3536.4274      40             40             40            -1257.2428     -1587.4756     -44.345571     -2139.9072     -3536.4274    
        65  -3542.283       40             40             40            -3530.2271     -3061.7813     -4220.8257     -3308.0743     -3542.283     
        66  -3549.7922      40             40             40            -5416.5153     -4521.8834     -7298.4885     -4429.174      -3549.7922    
        67  -3565.963       40             40             40            -6021.8137     -5269.4888     -7717.5407     -5078.4117     -3565.963     
        68  -3575.4343      40             40             40            -1952.7231     -2815.7947      742.84132     -3785.2158     -3575.4343    
        69  -3598.6383      40             40             40            -1981.9363     -1760.306      -1649.278      -2536.2249     -3598.6383    
        70  -3647.2664      40             40             40            -4633.6924     -3660.266      -4884.2762     -5356.535      -3647.2664    
        71  -3654.9439      40             40             40            -3798.3238     -2295.6639     -5447.317      -3651.9904     -3654.9439    
        72  -3663.0555      40             40             40            -2427.1167     -1192.1546     -4617.8556     -1471.34       -3663.0555    
        73  -3663.9194      40             40             40            -1381.1725     -639.33551     -2030.5453     -1473.6367     -3663.9194    
        74  -3665.0205      40             40             40            -691.75647      9.878262      -1560.6657     -524.48201     -3665.0205    
        75  -3670.2288      40             40             40            -401.2734       422.53236     -631.94818     -994.40438     -3670.2288    
        76  -3671.5642      40             40             40            -886.2843       51.89318      -832.71797     -1878.0281     -3671.5642    
        77  -3672.5678      40             40             40            -2016.8046     -862.5828      -3209.4925     -1978.3385     -3672.5678    
        78  -3676.2965      40             40             40            -2436.7307     -2147.2737     -2370.1101     -2792.8084     -3676.2965    
        79  -3687.1356      40             40             40            -2709.1167     -3391.1483      1594.5903     -6330.7921     -3687.1356    
        80  -3705.104       40             40             40            -4274.8083     -1746.8924     -3291.7891     -7785.7434     -3705.104     
        81  -3721.1809      40             40             40            -4553.497      -53.01937      -7823.3581     -5784.1134     -3721.1809    
        82  -3749.5608      40             40             40            -2775.037       563.93811     -6708.6887     -2180.3605     -3749.5608    
        83  -3772.2797      40             40             40            -1236.2965     -482.0093       2588.104      -5814.9842     -3772.2797    
        84  -3825.6618      40             40             40            -2522.2123     -1988.9814      2239.4149     -7817.0704     -3825.6618    
        85  -3838.6986      40             40             40            -2049.6894     -1493.659      -1350.7761     -3304.633      -3838.6986    
        86  -3839.5952      40             40             40            -1240.9957     -923.22199     -1012.4713     -1787.2938     -3839.5952    
        87  -3840.7766      40             40             40             293.59721      352.16611     -334.22286      862.84839     -3840.7766    
        88  -3842.8067      40             40             40             547.60186      891.11828      377.46109      374.22621     -3842.8067    
        89  -3843.7422      40             40             40             296.15471      511.64203     -172.74188      549.56399     -3843.7422    
        90  -3844.2905      40             40             40             215.41746     -210.85771      565.67396      291.43612     -3844.2905    
        91  -3846.2027      40             40             40            -547.49703     -215.42951     -2015.3478      588.28627     -3846.2027    
        92  -3848.3864      40             40             40            -918.32476      463.07647     -2249.51       -968.5407      -3848.3864    
        93  -3851.477       40             40             40             155.03217      1257.6709     -1221.6087      429.03441     -3851.477     
        94  -3856.5634      40             40             40            -426.74764      639.46367     -1367.9255     -551.78112     -3856.5634    
        95  -3858.8003      40             40             40            -1895.6993     -306.74159     -3173.0027     -2207.3538     -3858.8003    
        96  -3864.4284      40             40             40            -1560.0357     -101.37366     -4924.1021      345.36876     -3864.4284    
        97  -3871.4848      40             40             40             884.76376      969.46199      736.69357      948.13573     -3871.4848    
        98  -3873.4657      40             40             40             156.0097      -372.33559      319.4562       520.90848     -3873.4657    
        99  -3874.8741      40             40             40            -1189.9601     -1225.9263     -261.80098     -2082.1529     -3874.8741    
       100  -3877.1901      40             40             40            -1417.8926     -1069.1129     -1026.9868     -2157.5781     -3877.1901    
       101  -3877.786       40             40             40            -166.94158     -161.5652       455.83963     -795.09916     -3877.786     
       102  -3879.2256      40             40             40            -721.26008     -614.76911     -319.48959     -1229.5215     -3879.2256    
       103  -3882.2505      40             40             40            -1423.9019     -1278.8555     -2145.3197     -847.53041     -3882.2505    
       104  -3889.4063      40             40             40            -1612.744      -1692.9342     -816.87503     -2328.4229     -3889.4063    
       105  -3894.1792      40             40             40            -1733.785      -2047.0335     -108.01184     -3046.3097     -3894.1792    
       106  -3905.1381      40             40             40            -2171.9924     -1642.5393     -675.11466     -4198.3234     -3905.1381    
       107  -3923.8496      40             40             40            -1841.8002     -327.1386      -2316.4288     -2881.8334     -3923.8496    
       108  -3939.5776      40             40             40            -1723.9202     -1337.3036     -2314.1961     -1520.2608     -3939.5776    
       109  -3949.7514      40             40             40            -1831.1691     -2952.7886     -350.96177     -2189.757      -3949.7514    
       110  -3966.935       40             40             40            -2907.8997     -3176.9826     -679.6693      -4867.0471     -3966.935     
       111  -4001.7775      40             40             40            -2666.1028     -1617.688      -1964.7964     -4415.8241     -4001.7775    
       112  -4005.9844      40             40             40            -1265.8262     -1023.569      -816.45369     -1957.4559     -4005.9844    
       113  -4006.6952      40             40             40            -610.57618     -348.46887     -150.02123     -1333.2384     -4006.6952    
       114  -4007.1568      40             40             40            -407.8562      -457.93173     -113.79922     -651.83767     -4007.1568    
       115  -4011.6972      40             40             40            -908.35485     -949.0347       302.86628     -2078.8961     -4011.6972    
       116  -4021.8784      40             40             40            -1349.4665     -883.29822     -485.29385     -2679.8074     -4021.8784    
       117  -4037.3882      40             40             40            -2208.006      -805.06151     -1814.2412     -4004.7153     -4037.3882    
       118  -4054.2602      40             40             40            -2876.0445     -741.66158     -1798.8011     -6087.6708     -4054.2602    
       119  -4071.6741      40             40             40            -1732.4584     -407.65946     -1906.9504     -2882.7654     -4071.6741    
       120  -4096.8647      40             40             40            -4932.373      -865.18682     -2424.6857     -11507.246     -4096.8647    
       121  -4137.6215      40             40             40            -2392.3935     -1145.2409      185.23097     -6217.1707     -4137.6215    
       122  -4146.2977      40             40             40            -725.60325     -686.02577     -929.87794     -560.90606     -4146.2977    
       123  -4147.284       40             40             40            -335.43754     -717.95256     -594.01275      305.65269     -4147.284     
       124  -4147.6778      40             40             40            -517.63401     -795.3628      -261.61285     -495.9264      -4147.6778    
       125  -4147.8045      40             40             40            -583.33289     -772.0014      -413.14239     -564.85489     -4147.8045    
       126  -4147.9339      40             40             40            -536.91766     -643.40128     -666.37285     -300.97884     -4147.9339    
       127  -4148.1788      40             40             40            -713.6663      -556.07457     -864.15213     -720.77219     -4148.1788    
       128  -4152.9901      40             40             40            -1801.7745     -1459.7996     -512.79851     -3432.7253     -4152.9901    
       129  -4165.809       40             40             40            -2189.6058     -2893.89       -837.34082     -2837.5865     -4165.809     
       130  -4182.1542      40             40             40            -2566.1206     -3748.889      -2559.3341     -1390.1388     -4182.1542    
       131  -4203.6703      40             40             40            -3639.9978     -4985.1068     -3604.3751     -2330.5116     -4203.6703    
       132  -4232.255       40             40             40            -5645.5747     -6646.5323     -2440.0976     -7850.0941     -4232.255     
       133  -4273.7334      40             40             40            -8931.6437     -8945.7977     -4822.3661     -13026.768     -4273.7334    
       134  -4322.304       40             40             40            -4543.9676     -7632.495      -2518.8646     -3480.543      -4322.304     
       135  -4330.9677      40             40             40            -3229.9491     -7303.9367     -2710.346       324.43549     -4330.9677    
       136  -4352.4207      40             40             40            -5167.5985     -10442.043     -3277.3645     -1783.3883     -4352.4207    
       137  -4388.9849      40             40             40            -7083.499      -11580.274     -4184.0881     -5486.135      -4388.9849    
       138  -4402.1059      40             40             40            -3319.4725     -8817.5707     -3035.88        1895.0333     -4402.1059    
       139  -4431.1925      40             40             40            -43.660849     -5285.3604     -514.5822       5668.96       -4431.1925    
       140  -4460.3418      40             40             40            -545.37071     -4724.8801      272.62281      2816.1452     -4460.3418    
       141  -4504.5082      40             40             40            -5770.8203     -12725.119     -2539.653      -2047.6889     -4504.5082    
       142  -4522.0052      40             40             40            -3241.3382     -5746.4839     -1324.343      -2653.1877     -4522.0052    
       143  -4528.0102      40             40             40            -601.69874     -2909.0633     -328.19585      1432.1629     -4528.0102    
       144  -4529.3747      40             40             40            -1096.9314     -3466.2635     -373.86612      549.33544     -4529.3747    
       145  -4530.6574      40             40             40            -2004.8655     -4858.1254     -754.52534     -401.94574     -4530.6574    
       146  -4532.4727      40             40             40            -2032.2629     -4727.2405     -1489.5315      119.98337     -4532.4727    
       147  -4537.0855      40             40             40            -2215.6632     -3040.4545     -1899.2304     -1707.3048     -4537.0855    
       148  -4539.3509      40             40             40            -667.85297     -1205.9259     -275.41545     -522.21755     -4539.3509    
       149  -4540.1513      40             40             40             692.61396      99.579943      150.84073      1827.4212     -4540.1513    
       150  -4542.1725      40             40             40             644.35887      840.84363     -59.966926      1152.1999     -4542.1725    
       151  -4543.6288      40             40             40             264.39933      1117.9683      5.0975186     -329.86785     -4543.6288    
       152  -4544.0605      40             40             40             537.67074      1378.353      -181.22503      415.88427     -4544.0605    
       153  -4545.0576      40             40             40            -354.3202       416.45511     -682.57366     -796.84204     -4545.0576    
       154  -4547.5441      40             40             40            -1149.1125     -963.84183     -574.58247     -1908.9131     -4547.5441    
       155  -4548.6432      40             40             40             78.592546      291.09028     -130.54553      75.232884     -4548.6432    
       156  -4549.0677      40             40             40            -261.6802      -118.48375     -258.3348      -408.22205     -4549.0677    
       157  -4550.0042      40             40             40            -1327.374      -1733.9677     -747.90657     -1500.2478     -4550.0042    
       158  -4550.4563      40             40             40            -858.69096     -936.51876     -631.44358     -1008.1105     -4550.4563    
       159  -4552.3938      40             40             40            -646.61487      863.47574     -403.27239     -2400.048      -4552.3938    
       160  -4559.7825      40             40             40            -2013.0055      95.192869     -962.45709     -5171.7523     -4559.7825    
       161  -4571.449       40             40             40            -2734.7958     -3269.6049     -2026.0755     -2908.7069     -4571.449     
       162  -4586.1112      40             40             40            -3069.1127     -4247.9465     -2387.7903     -2571.6012     -4586.1112    
       163  -4608.2523      40             40             40            -2502.5569     -336.56259     -1077.5577     -6093.5505     -4608.2523    
       164  -4627.1129      40             40             40            -2726.6654     -286.46684     -1537.9641     -6355.5654     -4627.1129    
       165  -4674.8563      40             40             40            -4116.2382     -2133.2252     -2319.8591     -7895.6303     -4674.8563    
       166  -4693.049       40             40             40            -1246.7112     -2019.3575     -1191.5826     -529.19351     -4693.049     
       167  -4694.2148      40             40             40            -578.62544     -588.45018     -753.15771     -394.26843     -4694.2148    
       168  -4696.6674      40             40             40            -1055.2613     -526.90012     -622.24486     -2016.639      -4696.6674    
       169  -4703.9495      40             40             40            -494.00851     -125.06623     -286.15993     -1070.7994     -4703.9495    
       170  -4705.656       40             40             40             490.8395       648.53539     -11.094929      835.07802     -4705.656     
       171  -4706.3568      40             40             40             249.86357      294.89497     -76.143818      530.83955     -4706.3568    
       172  -4707.4491      40             40             40            -629.63444     -421.53587     -488.58462     -978.78284     -4707.4491    
       173  -4709.1881      40             40             40            -141.85337      18.147852     -574.77802      131.07005     -4709.1881    
       174  -4713.7672      40             40             40             267.83645      478.10735     -177.50175      502.90376     -4713.7672    
       175  -4715.1448      40             40             40            -364.75181     -207.56597     -301.35861     -585.33084     -4715.1448    
       176  -4716.0455      40             40             40            -181.2644      -519.65155     -522.32844      498.1868      -4716.0455    
       177  -4717.2014      40             40             40            -686.15292     -735.44229     -821.91496     -501.1015      -4717.2014    
       178  -4717.5271      40             40             40            -228.59603     -40.490328     -168.54827     -476.74951     -4717.5271    
       179  -4717.7262      40             40             40             509.64154      636.93062      283.99888      607.99513     -4717.7262    
       180  -4718.2146      40             40             40            -7.7218413     -146.88674     -290.34877      414.06998     -4718.2146    
       181  -4718.3056      40             40             40            -238.53432     -66.166567     -304.12493     -345.31147     -4718.3056    
       182  -4718.4546      40             40             40            -19.218113      711.01809     -137.38318     -631.28924     -4718.4546    
       183  -4719.5807      40             40             40            -145.97443      717.29383     -849.59859     -305.61854     -4719.5807    
       184  -4721.619       40             40             40            -1887.4379     -1045.2763     -2766.4879     -1850.5495     -4721.619     
       185  -4726.749       40             40             40            -3128.7772     -1632.4094     -5092.0024     -2661.9197     -4726.749     
       186  -4735.5117      40             40             40            -1765.9935      1150.6291     -5940.0046     -508.60493     -4735.5117    
       187  -4749.5507      40             40             40            -2014.064       1193.4652     -6463.3804     -772.27695     -4749.5507    
       188  -4761.2995      40             40             40            -5022.1846     -3979.5293     -6476.1728     -4610.8518     -4761.2995    
       189  -4774.905       40             40             40            -4074.4105     -4677.1006     -4890.8062     -2655.3246     -4774.905     
       190  -4788.2052      40             40             40            -1079.7368      477.12179     -4856.9607      1140.6286     -4788.2052    
       191  -4828.9087      40             40             40            -3241.1189      1825.932      -10766.167     -783.12193     -4828.9087    
       192  -4850.3236      40             40             40            -177.72438      2648.45       -1207.8256     -1973.7975     -4850.3236    
       193  -4856.0583      40             40             40            -76.776451     -270.91525      538.41657     -497.83068     -4856.0583    
       194  -4856.5706      40             40             40            -485.34151     -1018.4092     -80.165185     -357.45018     -4856.5706    
       195  -4856.8876      40             40             40            -239.72839     -122.47315     -412.80323     -183.90879     -4856.8876    
       196  -4857.0211      40             40             40             170.3886       492.35189     -382.9942       401.80812     -4857.0211    
       197  -4857.4808      40             40             40             359.45328      893.30417     -254.2899       439.34559     -4857.4808    
       198  -4858.6931      40             40             40            -421.53168     -258.70451     -272.99637     -732.89418     -4858.6931    
       199  -4858.9038      40             40             40            -137.7245      -427.00463     -252.44983      266.28095     -4858.9038    
       200  -4859.021       40             40             40             16.055975     -186.35177     -320.71478      555.23447     -4859.021     
       201  -4859.2577      40             40             40            -447.18489     -518.44194     -461.36389     -361.74883     -4859.2577    
       202  -4859.5658      40             40             40            -669.92434     -974.25699     -282.23189     -753.28416     -4859.5658    
       203  -4859.6372      40             40             40            -206.37334     -434.15845     -89.479746     -95.481835     -4859.6372    
       204  -4859.6713      40             40             40             32.617097      64.985623      19.990527      12.875142     -4859.6713    
       205  -4859.6932      40             40             40            -258.80276     -181.86393     -121.66967     -472.87467     -4859.6932    
       206  -4859.7297      40             40             40            -346.9293      -377.3168      -216.42644     -447.04467     -4859.7297    
       207  -4859.7816      40             40             40            -22.548041     -210.3272      -32.207308      174.89038     -4859.7816    
       208  -4859.8199      40             40             40             14.485928     -58.188527      36.169541      65.47677      -4859.8199    
       209  -4859.8421      40             40             40             25.869524      38.322389     -4.3954356      43.681618     -4859.8421    
       210  -4859.8793      40             40             40            -102.13212     -21.601343     -129.32374     -155.47127     -4859.8793    
       211  -4859.9001      40             40             40            -63.465873     -107.21563     -102.11108      18.929084     -4859.9001    
       212  -4859.9148      40             40             40             28.173707     -81.464286     -47.319172      213.30458     -4859.9148    
       213  -4859.9309      40             40             40            -71.567303     -107.74287     -32.580944     -74.378097     -4859.9309    
       214  -4859.9483      40             40             40            -174.8584      -156.92305     -108.03471     -259.61745     -4859.9483    
       215  -4859.9578      40             40             40            -123.31241     -109.95696     -143.19866     -116.78162     -4859.9578    
       216  -4859.9671      40             40             40            -58.904428     -10.357746     -92.56569      -73.789848     -4859.9671    
       217  -4859.9746      40             40             40            -94.027348     -11.10978      -73.234817     -197.73745     -4859.9746    
       218  -4859.9822      40             40             40            -100.47267     -56.363647     -73.140229     -171.91414     -4859.9822    
       219  -4859.9896      40             40             40            -132.57464     -182.44458     -97.717364     -117.56199     -4859.9896    
       220  -4859.9942      40             40             40            -152.28061     -183.67983     -98.553224     -174.60878     -4859.9942    
       221  -4860.004       40             40             40            -18.326414      96.397139     -55.90185      -95.474532     -4860.004     
       222  -4860.0129      40             40             40            -27.737818      38.246739     -64.048528     -57.411666     -4860.0129    
       223  -4860.0287      40             40             40            -159.21729     -202.14391     -94.404139     -181.10382     -4860.0287    
       224  -4860.04        40             40             40            -33.280271     -119.20254     -86.940336      106.30206     -4860.04      
       225  -4860.0477      40             40             40            -16.130226     -119.6424      -109.99636      181.24808     -4860.0477    
       226  -4860.0733      40             40             40            -163.97465     -234.22927     -142.18343     -115.51125     -4860.0733    
       227  -4860.0787      40             40             40            -53.254931     -32.619849     -95.945172     -31.199771     -4860.0787    
       228  -4860.0816      40             40             40            -45.094286      18.158904     -93.018747     -60.423015     -4860.0816    
       229  -4860.0932      40             40             40            -129.23279     -120.93627     -178.1409      -88.621218     -4860.0932    
       230  -4860.0972      40             40             40            -154.86284     -143.32289     -121.04125     -200.22439     -4860.0972    
       231  -4860.1017      40             40             40            -57.579544     -31.366971     -50.238174     -91.133485     -4860.1017    
       232  -4860.1069      40             40             40            -78.799821     -39.931415     -57.429116     -139.03893     -4860.1069    
       233  -4860.1128      40             40             40            -140.30057     -121.28618     -125.98784     -173.62769     -4860.1128    
       234  -4860.1226      40             40             40            -100.97853     -59.739132     -52.561565     -190.63489     -4860.1226    
       235  -4860.158       40             40             40             31.909938      7.4393933      10.667786      77.622635     -4860.158     
       236  -4860.1736      40             40             40            -65.212111     -117.6693      -73.040744     -4.9262868     -4860.1736    
       237  -4860.186       40             40             40             45.482897      29.164031     -76.682905      183.96757     -4860.186     
       238  -4860.2248      40             40             40            -2.5161655      113.38391     -70.14391      -50.788501     -4860.2248    
       239  -4860.265       40             40             40            -296.24245     -269.58462     -220.4604      -398.68232     -4860.265     
       240  -4860.2896      40             40             40            -418.82873     -426.99783     -411.35314     -418.13522     -4860.2896    
       241  -4860.6073      40             40             40            -176.57059     -429.44497     -445.6838       345.41699     -4860.6073    
       242  -4861.2268      40             40             40            -531.31139     -721.92968     -196.1507      -675.85379     -4861.2268    
       243  -4862.952       40             40             40            -347.89095      113.11129      440.18795     -1596.9721     -4862.952     
       244  -4867.4362      40             40             40            -420.98318      611.70251     -130.23485     -1744.4172     -4867.4362    
       245  -4875.7607      40             40             40            -2260.8338     -963.62798     -1241.5004     -4577.3731     -4875.7607    
       246  -4889.04        40             40             40            -3572.7145     -2090.0745     -1871.5241     -6756.5448     -4889.04      
       247  -4908.3172      40             40             40            -3635.5196     -1398.723      -1509.1135     -7998.7222     -4908.3172    
       248  -4930.1617      40             40             40            -5041.5445     -2690.2948     -2372.7679     -10061.571     -4930.1617    
       249  -4951.1981      40             40             40            -3740.01       -1689.1799     -2085.2772     -7445.573      -4951.1981    
       250  -4970.1401      40             40             40            -4067.3258     -1906.8431     -1740.281      -8554.8533     -4970.1401    
       251  -4987.2149      40             40             40            -3477.269      -1716.5173     -1921.801      -6793.4889     -4987.2149    
       252  -5019.4167      40             40             40            -4186.2624     -2038.8565     -2056.5199     -8463.4109     -5019.4167    
       253  -5030.8412      40             40             40            -2988.5395     -1295.5267     -1834.793      -5835.2988     -5030.8412    
       254  -5035.657       40             40             40            -1459.4396     -744.81918     -1801.4271     -1832.0727     -5035.657     
       255  -5038.6085      40             40             40            -1662.9225     -1375.4652     -1784.7959     -1828.5062     -5038.6085    
       256  -5040.8563      40             40             40            -1530.1815     -1104.7564     -1323.0567     -2162.7314     -5040.8563    
       257  -5041.2824      40             40             40            -1441.2067     -954.26388     -984.04321     -2385.3129     -5041.2824    
       258  -5041.6561      40             40             40            -661.74673     -320.80095     -553.2595      -1111.1797     -5041.6561    
       259  -5042.0783      40             40             40            -508.36393     -332.84464     -382.42574     -809.82141     -5042.0783    
       260  -5044.9815      40             40             40             113.55502     -304.44238     -29.064977      674.17242     -5044.9815    
       261  -5051.6184      40             40             40            -393.3157      -182.60896     -329.2681      -668.07004     -5051.6184    
       262  -5056.6788      40             40             40            -2839.9224     -544.47162     -2298.8826     -5676.4131     -5056.6788    
       263  -5061.1554      40             40             40            -3555.7322     -1160.0133     -3751.2855     -5755.8977     -5061.1554    
       264  -5064.1458      40             40             40            -3287.4292     -2811.0849     -3747.5074     -3303.6952     -5064.1458    
       265  -5068.2586      40             40             40            -2725.9686     -3052.7206     -2917.6496     -2207.5357     -5068.2586    
       266  -5070.1271      40             40             40            -1402.0688     -217.62011     -2300.7532     -1687.8332     -5070.1271    
       267  -5077.089       40             40             40            -600.81958      1399.7762     -1943.9898     -1258.2452     -5077.089     
       268  -5084.1408      40             40             40            -3258.0616     -4666.1877     -3908.4809     -1199.5162     -5084.1408    
       269  -5088.8381      40             40             40            -3764.6454     -6530.6217     -4859.1048      95.790261     -5088.8381    
       270  -5096.2129      40             40             40            -1717.4251     -1070.7607     -4295.6942      214.1796      -5096.2129    
       271  -5099.4006      40             40             40            -1434.3706      855.14318     -3266.0524     -1892.2027     -5099.4006    
       272  -5105.1919      40             40             40            -1351.6254     -1024.7683     -2295.7126     -734.39542     -5105.1919    
       273  -5107.7152      40             40             40            -805.04271     -1305.103      -2196.6569      1086.6318     -5107.7152    
       274  -5108.8996      40             40             40            -830.33753     -1181.0168     -1661.0608      351.06507     -5108.8996    
       275  -5110.7714      40             40             40             40.372277      19.765954     -66.910133      168.26101     -5110.7714    
       276  -5111.2796      40             40             40             113.71656     -200.31056      199.68538      341.77487     -5111.2796    
       277  -5111.6144      40             40             40            -408.9188      -738.1941       86.929154     -575.49144     -5111.6144    
       278  -5112.8797      40             40             40            -506.35183     -507.66703     -101.21756     -910.17089     -5112.8797    
       279  -5116.1994      40             40             40            -638.27479     -1166.2522     -183.35782     -565.21433     -5116.1994    
       280  -5126.337       40             40             40            -1860.8019     -2999.9431     -566.3006      -2016.1621     -5126.337     
       281  -5143.6739      40             40             40            -2166.5452     -3037.3046     -845.16288     -2617.168      -5143.6739    
       282  -5160.1096      40             40             40            -862.58782     -2163.729      -894.42467      470.39025     -5160.1096    
       283  -5175.9976      40             40             40            -2182.8673     -3244.3248     -1095.7235     -2208.5538     -5175.9976    
       284  -5203.0378      40             40             40            -4276.8216     -8302.484      -3427.762      -1100.2189     -5203.0378    
       285  -5241.3843      40             40             40            -946.60561     -2067.6337     -1354.1262      581.94304     -5241.3843    
       286  -5245.3784      40             40             40            -1245.0966     -1461.502      -1056.1138     -1217.6741     -5245.3784    
       287  -5246.1338      40             40             40            -470.84919     -258.51099     -789.65024     -364.38632     -5246.1338    
       288  -5247.3174      40             40             40            -1044.4885     -449.2453      -1144.3979     -1539.8222     -5247.3174    
       289  -5248.3368      40             40             40            -941.68675     -442.14573     -1415.7823     -967.13222     -5248.3368    
       290  -5248.5182      40             40             40            -380.12485      228.78233     -1075.4747     -293.68223     -5248.5182    
       291  -5248.9275      40             40             40             54.809512      778.15353     -354.96406     -258.76093     -5248.9275    
       292  -5249.3572      40             40             40            -189.28053     -16.236721     -349.6255      -201.97936     -5249.3572    
       293  -5249.6205      40             40             40             133.83982      217.56049     -301.11794      485.07691     -5249.6205    
       294  -5250.1964      40             40             40             77.044315      671.9911      -235.96352     -204.89463     -5250.1964    
       295  -5250.5003      40             40             40            -322.38207      188.03142     -227.74964     -927.428       -5250.5003    
       296  -5250.8953      40             40             40             16.319363      136.22543      24.729415     -111.99675     -5250.8953    
       297  -5251.106       40             40             40             420.89135      734.44906      235.89427      292.33073     -5251.106     
       298  -5251.3128      40             40             40             263.57997      551.79472      86.668688      152.2765      -5251.3128    
       299  -5251.6253      40             40             40            -265.40728      19.71886      -386.61345     -429.32724     -5251.6253    
       300  -5251.7401      40             40             40            -248.24375      37.955066     -671.84259     -110.84372     -5251.7401    
       301  -5251.7927      40             40             40            -541.91463     -404.75255     -795.65584     -425.33551     -5251.7927    
       302  -5251.8876      40             40             40            -673.29751     -758.6825      -669.30005     -591.90997     -5251.8876    
       303  -5251.9956      40             40             40            -256.25486      83.822386     -284.14783     -568.43913     -5251.9956    
       304  -5252.0588      40             40             40            -55.991996      76.952166     -84.301052     -160.6271      -5252.0588    
       305  -5252.0908      40             40             40            -310.19504     -420.04043     -164.35402     -346.19067     -5252.0908    
       306  -5252.1274      40             40             40            -328.59602     -452.45973     -281.29611     -252.03221     -5252.1274    
       307  -5252.1473      40             40             40            -311.59547     -204.34641     -326.65424     -403.78577     -5252.1473    
       308  -5252.1733      40             40             40            -183.96725      31.481886     -228.25922     -355.12441     -5252.1733    
       309  -5252.1888      40             40             40            -32.113653      65.512812     -88.962507     -72.891263     -5252.1888    
       310  -5252.2051      40             40             40            -57.713912     -52.349616     -44.321075     -76.471045     -5252.2051    
       311  -5252.2703      40             40             40            -116.40599     -333.56736     -94.165149      78.514533     -5252.2703    
       312  -5252.4231      40             40             40             17.860611     -130.85282      328.01729     -143.58263     -5252.4231    
       313  -5252.5934      40             40             40            -297.17631     -192.63798      264.58497     -963.47593     -5252.5934    
       314  -5253.2016      40             40             40            -679.13579     -277.30699     -417.5858      -1342.5146     -5253.2016    
       315  -5254.7885      40             40             40            -371.75094      57.526476     -929.0569      -243.72238     -5254.7885    
       316  -5257.2823      40             40             40            -839.75104     -305.68556     -1731.3217     -482.24584     -5257.2823    
       317  -5262.5247      40             40             40            -2290.7774     -1514.8105     -2337.1845     -3020.3372     -5262.5247    
       318  -5268.2237      40             40             40            -1628.3878     -1192.6197     -807.74462     -2884.799      -5268.2237    
       319  -5273.2502      40             40             40            -836.27015     -56.159712     -1596.3198     -856.33096     -5273.2502    
       320  -5277.3545      40             40             40            -803.01668      364.01252     -2120.5209     -652.5417      -5277.3545    
       321  -5278.2286      40             40             40            -915.39671     -75.917596     -1107.9059     -1562.3666     -5278.2286    
       322  -5278.6533      40             40             40            -296.30442     -249.17523      70.13771      -709.87574     -5278.6533    
       323  -5279.9638      40             40             40            -1267.0045     -1490.0524     -1241.7584     -1069.2027     -5279.9638    
       324  -5280.6366      40             40             40            -896.80093     -769.78416     -648.60755     -1272.0111     -5280.6366    
       325  -5281.0546      40             40             40             159.0438       493.49468      131.16547     -147.52876     -5281.0546    
       326  -5281.4353      40             40             40             289.85104      737.13468      226.15239     -93.73395      -5281.4353    
       327  -5281.9047      40             40             40             19.125282     -309.2059      -6.0366802      372.61843     -5281.9047    
       328  -5282.2039      40             40             40             79.357975     -479.41032     -91.423988      808.90824     -5282.2039    
       329  -5282.463       40             40             40            -210.9613      -373.89171     -72.47925      -186.51296     -5282.463     
       330  -5282.6911      40             40             40            -115.93175     -24.408648     -136.89821     -186.48839     -5282.6911    
       331  -5282.9621      40             40             40            -430.61289     -144.32075     -748.73888     -398.77903     -5282.9621    
       332  -5283.2498      40             40             40            -357.49349     -1027.3059      337.07434     -382.24887     -5283.2498    
       333  -5283.3967      40             40             40            -580.37414     -1329.8112      51.818739     -463.13        -5283.3967    
       334  -5283.5506      40             40             40            -301.46962     -540.44373     -364.56987      0.6047537     -5283.5506    
       335  -5283.6634      40             40             40            -192.41047     -82.295251     -180.11089     -314.82526     -5283.6634    
       336  -5283.7624      40             40             40             24.216621      17.539818      283.817       -228.70695     -5283.7624    
       337  -5283.887       40             40             40            -276.08115     -301.58075     -184.46028     -342.20242     -5283.887     
       338  -5283.9087      40             40             40            -175.24937     -112.21005     -302.79335     -110.74471     -5283.9087    
       339  -5283.9358      40             40             40            -20.276694      111.53654     -174.9611       2.594484      -5283.9358    
       340  -5283.9706      40             40             40            -13.842465      28.525262      22.038469     -92.091126     -5283.9706    
       341  -5283.9895      40             40             40            -269.21969     -447.07466     -150.96765     -209.61677     -5283.9895    
       342  -5283.994       40             40             40            -375.42557     -549.58242     -261.15579     -315.5385      -5283.994     
       343  -5284.0307      40             40             40            -259.41619     -220.16326     -198.25931     -359.82601     -5284.0307    
       344  -5284.0459      40             40             40            -106.01104     -97.061542     -33.094209     -187.87737     -5284.0459    
       345  -5284.063       40             40             40            -75.285585     -102.77546     -77.7236       -45.357699     -5284.063     
       346  -5284.14        40             40             40            -196.26616     -405.18912      218.24444     -401.85381     -5284.14      
       347  -5284.2536      40             40             40            -343.0131      -494.25039     -165.68046     -369.10844     -5284.2536    
       348  -5284.3066      40             40             40            -175.46779     -240.81028     -172.43075     -113.16233     -5284.3066    
       349  -5284.3152      40             40             40            -60.931818     -71.777716     -53.707224     -57.310515     -5284.3152    
       350  -5284.3235      40             40             40            -119.00059     -80.775609     -90.21214      -186.01402     -5284.3235    
       351  -5284.3337      40             40             40            -82.153663     -133.83988      23.284799     -135.90591     -5284.3337    
       352  -5284.3526      40             40             40            -175.4575      -385.3704      -85.60251      -55.399577     -5284.3526    
       353  -5284.3872      40             40             40            -140.76521     -256.31096     -57.491853     -108.49281     -5284.3872    
       354  -5284.407       40             40             40            -107.58029     -28.787412     -69.723038     -224.23042     -5284.407     
       355  -5284.4162      40             40             40            -22.048756      145.7339      -26.396076     -185.48409     -5284.4162    
       356  -5284.4401      40             40             40            -167.54557     -64.297594     -226.71355     -211.62556     -5284.4401    
       357  -5284.4558      40             40             40            -232.53859     -267.43337     -179.36166     -250.82073     -5284.4558    
       358  -5284.4631      40             40             40            -136.63531     -263.11645     -8.1172416     -138.67223     -5284.4631    
       359  -5284.4789      40             40             40            -107.84711     -149.87493     -123.93481     -49.731583     -5284.4789    
       360  -5284.4891      40             40             40            -179.21989     -143.71714     -253.58416     -140.35838     -5284.4891    
       361  -5284.4945      40             40             40            -55.355708     -25.862499      11.381246     -151.58587     -5284.4945    
       362  -5284.5018      40             40             40            -9.9446514     -4.6678842      96.783603     -121.94967     -5284.5018    
       363  -5284.5135      40             40             40            -182.38393     -187.58345     -177.9725      -181.59586     -5284.5135    
       364  -5284.5206      40             40             40            -163.22438     -292.94494     -88.493714     -108.23448     -5284.5206    
       365  -5284.5254      40             40             40            -107.40286     -218.79423     -34.433968     -68.980394     -5284.5254    
       366  -5284.5297      40             40             40            -134.13185     -158.51961     -134.01318     -109.86275     -5284.5297    
       367  -5284.535       40             40             40            -54.266583      8.4206048     -102.99247     -68.227887     -5284.535     
       368  -5284.5431      40             40             40            -131.56843     -133.7054      -105.8744      -155.1255      -5284.5431    
       369  -5284.5474      40             40             40            -231.62367     -236.98919     -225.17668     -232.70514     -5284.5474    
       370  -5284.5525      40             40             40            -177.32961     -177.11049     -183.70759     -171.17075     -5284.5525    
       371  -5284.5619      40             40             40            -73.074127     -71.895012     -55.728552     -91.598818     -5284.5619    
       372  -5284.5639      40             40             40            -136.7369      -133.09428     -143.61018     -133.50625     -5284.5639    
       373  -5284.5673      40             40             40            -184.88977     -197.02044     -191.55083     -166.09803     -5284.5673    
       374  -5284.5718      40             40             40            -196.69666     -210.03051     -153.70714     -226.35234     -5284.5718    
       375  -5284.5758      40             40             40            -233.97277     -238.31653     -210.65375     -252.94802     -5284.5758    
       376  -5284.5847      40             40             40            -117.60481     -157.98236     -127.94917     -66.882902     -5284.5847    
       377  -5284.5859      40             40             40            -128.73466     -178.63606     -124.61935     -82.948569     -5284.5859    
       378  -5284.5882      40             40             40            -197.50856     -202.10218     -150.10261     -240.32088     -5284.5882    
       379  -5284.595       40             40             40            -167.41261     -121.90535     -136.2296      -244.1029      -5284.595     
       380  -5284.6054      40             40             40            -185.21372     -160.37068     -280.25956     -115.01093     -5284.6054    
       381  -5284.6113      40             40             40            -154.20622     -189.13667     -185.65009     -87.831891     -5284.6113    
       382  -5284.6161      40             40             40            -166.87804     -181.80914     -114.21053     -204.61445     -5284.6161    
       383  -5284.6451      40             40             40            -220.02945     -235.51426     -213.93414     -210.63996     -5284.6451    
       384  -5284.6517      40             40             40            -123.36439     -186.20511     -210.85559      26.967533     -5284.6517    
       385  -5284.6667      40             40             40             5.0942073     -214.11139     -99.149435      328.54344     -5284.6667    
       386  -5284.6994      40             40             40            -237.8631      -478.0687      -150.77915     -84.741445     -5284.6994    
       387  -5284.7532      40             40             40            -499.02422     -702.75646     -237.932       -556.3842      -5284.7532    
       388  -5284.8723      40             40             40            -1312.7433     -1501.7756     -1587.1667     -849.28743     -5284.8723    
       389  -5285.329       40             40             40            -1961.5441     -2347.3836     -2484.5237     -1052.7252     -5285.329     
       390  -5287.0313      40             40             40            -2000.4223     -2932.5217     -1848.5474     -1220.1977     -5287.0313    
       391  -5288.1818      40             40             40            -758.19666     -2572.5713      1521.5554     -1223.5741     -5288.1818    
       392  -5290.8099      40             40             40             421.8533      -2368.7029      3949.8165     -315.55375     -5290.8099    
       393  -5295.9104      40             40             40            -1507.2165     -3601.9383     -1053.7836      134.07243     -5295.9104    
       394  -5302.8871      40             40             40            -2263.6192     -3698.4283     -2370.4315     -721.99775     -5302.8871    
       395  -5304.7723      40             40             40            -708.78035     -2674.8375      1594.019      -1045.5225     -5304.7723    
       396  -5308.9084      40             40             40            -4397.1648     -5382.7251     -3433.3686     -4375.4006     -5308.9084    
       397  -5313.3351      40             40             40            -4219.0585     -4956.0861     -3684.2845     -4016.8049     -5313.3351    
       398  -5315.9626      40             40             40            -1995.0964     -3330.9935     -355.07028     -2299.2253     -5315.9626    
       399  -5318.3214      40             40             40            -2200.2664     -3707.8151     -1458.4898     -1434.4944     -5318.3214    
       400  -5319.0257      40             40             40            -1146.8936     -2800.4561     -236.40461     -403.82017     -5319.0257    
       401  -5320.6937      40             40             40             119.01169     -833.24831      1021.6439      168.63949     -5320.6937    
       402  -5322.238       40             40             40            -507.20361     -804.54464     -525.41597     -191.65022     -5322.238     
       403  -5323.6403      40             40             40             146.36932     -114.73973     -202.6722       756.5199      -5323.6403    
       404  -5323.9963      40             40             40            -411.56665     -656.4231      -673.54531      95.26845      -5323.9963    
       405  -5324.4599      40             40             40            -782.65575     -358.27992     -469.73133     -1519.956      -5324.4599    
       406  -5326.2153      40             40             40            -858.34815      477.21557     -1472.5099     -1579.7501     -5326.2153    
       407  -5329.3754      40             40             40            -1780.1797     -473.62004     -3848.6243     -1018.2947     -5329.3754    
       408  -5330.405       40             40             40            -454.78522     -97.121572     -1497.5692      230.33513     -5330.405     
       409  -5333.5375      40             40             40             2081.9453      825.68491      898.91374      4521.2371     -5333.5375    
       410  -5339.7214      40             40             40             1808.9243      42.595554     -203.9347       5588.1119     -5339.7214    
       411  -5350.4518      40             40             40            -3718.0967     -3392.5021     -6839.6862     -922.10168     -5350.4518    
       412  -5362.9477      40             40             40            -6476.5008     -4520.6583     -8706.992      -6201.852      -5362.9477    
       413  -5377.8024      40             40             40            -1724.1289     -1032.2925     -2112.9179     -2027.1764     -5377.8024    
       414  -5392.8783      40             40             40             6.0827376      7.9932626     -820.35488      830.60983     -5392.8783    
       415  -5408.3603      40             40             40            -8808.8594     -4328.5356     -18419.709     -3678.3337     -5408.3603    
       416  -5421.653       40             40             40            -9670.8018     -5675.4354     -18224.712     -5112.2581     -5421.653     
       417  -5465.2774      40             40             40            -1695.4667     -2064.5919     -1994.9433     -1026.8648     -5465.2774    
       418  -5467.8625      40             40             40             145.53934     -644.89882      600.38547      481.13136     -5467.8625    
       419  -5467.9319      40             40             40            -7.7616233     -717.98215      505.05385      189.64342     -5467.9319    
       420  -5468.1944      40             40             40            -554.65969     -1088.9522     -181.00462     -394.02225     -5468.1944    
       421  -5468.3645      40             40             40            -367.2817      -572.61783      39.945935     -569.17321     -5468.3645    
       422  -5468.5282      40             40             40            -489.0582      -553.4855      -419.46844     -494.22068     -5468.5282    
       423  -5468.5834      40             40             40            -80.708854     -302.63842     -69.338386      129.85024     -5468.5834    
       424  -5468.6389      40             40             40            -16.999812     -326.47454     -91.396253      366.87136     -5468.6389    
       425  -5468.9483      40             40             40            -636.79574     -703.32436     -889.22091     -317.84196     -5468.9483    
       426  -5469.3337      40             40             40            -340.33656     -494.14276     -379.80918     -147.05775     -5469.3337    
       427  -5469.8719      40             40             40            -580.5234      -1051.2047     -521.22875     -169.13678     -5469.8719    
       428  -5470.4265      40             40             40            -364.95535     -984.24209     -566.12322      455.49927     -5470.4265    
       429  -5470.7722      40             40             40            -68.326243     -310.84873      85.25844       20.611566     -5470.7722    
       430  -5470.8776      40             40             40            -439.30463     -517.87592     -241.17299     -558.86499     -5470.8776    
       431  -5470.9826      40             40             40            -528.0554      -804.2101      -434.88449     -345.07162     -5470.9826    
       432  -5471.0528      40             40             40            -374.15104     -791.31526     -297.94563     -33.192231     -5471.0528    
       433  -5471.1623      40             40             40            -381.43171     -616.91079     -292.36628     -235.01806     -5471.1623    
       434  -5471.1898      40             40             40            -207.05891     -289.18262     -120.53966     -211.45445     -5471.1898    
       435  -5471.2037      40             40             40            -261.98392     -270.00943     -223.59924     -292.3431      -5471.2037    
       436  -5471.2613      40             40             40             165.17646      272.50309      122.84073      100.18556     -5471.2613    
       437  -5471.3291      40             40             40             277.76389      340.7044       156.68811      335.89916     -5471.3291    
       438  -5471.4136      40             40             40            -169.40181     -233.95435     -317.78536      43.534287     -5471.4136    
       439  -5471.5015      40             40             40            -19.98344       49.500264     -14.323667     -95.126916     -5471.5015    
       440  -5471.5402      40             40             40            -198.55889     -39.26917      -239.50916     -316.89835     -5471.5402    
       441  -5471.5775      40             40             40            -201.1948      -133.52737     -277.46045     -192.59659     -5471.5775    
       442  -5471.5861      40             40             40            -69.638612     -51.353532     -62.766129     -94.796176     -5471.5861    
       443  -5471.5929      40             40             40            -105.91279     -98.273808     -138.21654     -81.248022     -5471.5929    
       444  -5471.6013      40             40             40            -55.313717     -36.661112     -152.742        23.461963     -5471.6013    
       445  -5471.617       40             40             40             29.17998       174.91157     -98.022076      10.650444     -5471.617     
       446  -5471.6336      40             40             40             32.959093      146.88616     -37.789176     -10.219704     -5471.6336    
       447  -5471.6514      40             40             40            -279.56704     -290.21663     -418.97173     -129.51274     -5471.6514    
       448  -5471.6948      40             40             40            -273.92025     -392.2004      -294.98963     -134.57073     -5471.6948    
       449  -5471.7228      40             40             40            -264.13607     -301.46752     -239.43286     -251.50781     -5471.7228    
       450  -5471.7264      40             40             40            -179.96287     -227.17119     -155.33474     -157.38267     -5471.7264    
       451  -5471.7284      40             40             40            -155.10858     -187.36835     -147.6315      -130.32589     -5471.7284    
       452  -5471.7299      40             40             40            -168.86179     -188.28249     -163.94892     -154.35396     -5471.7299    
       453  -5471.7314      40             40             40            -107.95514     -128.77015     -93.581739     -101.51354     -5471.7314    
       454  -5471.7344      40             40             40            -99.347214     -121.11301     -116.58014     -60.348499     -5471.7344    
       455  -5471.736       40             40             40            -102.89672     -110.74165     -122.57418     -75.374325     -5471.736     
       456  -5471.7367      40             40             40            -67.189951     -66.041035     -74.349976     -61.178843     -5471.7367    
       457  -5471.738       40             40             40            -103.67622     -83.426698     -105.96286     -121.63911     -5471.738     
       458  -5471.7402      40             40             40            -205.79516     -239.17517     -206.0645      -172.1458      -5471.7402    
       459  -5471.7416      40             40             40            -162.35841     -215.44966     -134.53988     -137.08569     -5471.7416    
       460  -5471.7442      40             40             40            -155.32509     -196.41415     -130.76        -138.80111     -5471.7442    
       461  -5471.7495      40             40             40            -133.59091     -168.55989     -153.81946     -78.393382     -5471.7495    
       462  -5471.7547      40             40             40            -49.27219      -77.995323     -20.162698     -49.658549     -5471.7547    
       463  -5471.7574      40             40             40            -109.63135     -111.24344     -102.00101     -115.64961     -5471.7574    
       464  -5471.7596      40             40             40            -199.43304     -193.37679     -268.84735     -136.07498     -5471.7596    
       465  -5471.7609      40             40             40            -181.52662     -190.55345     -254.42801     -99.598388     -5471.7609    
       466  -5471.7629      40             40             40            -118.58699     -141.39804     -134.16764     -80.195273     -5471.7629    
       467  -5471.7636      40             40             40            -145.53624     -159.7912      -161.94817     -114.86934     -5471.7636    
       468  -5471.7657      40             40             40            -143.49531     -153.32182     -148.91796     -128.24615     -5471.7657    
       469  -5471.7683      40             40             40            -184.32597     -206.03394     -174.52854     -172.41543     -5471.7683    
       470  -5471.7712      40             40             40            -167.29986     -210.34773     -149.42522     -142.12663     -5471.7712    
       471  -5471.7728      40             40             40            -161.10508     -190.93932     -149.87679     -142.49912     -5471.7728    
       472  -5471.7742      40             40             40            -84.241402     -102.22628     -73.571835     -76.926092     -5471.7742    
       473  -5471.7756      40             40             40            -70.440728     -70.353767     -81.331769     -59.636648     -5471.7756    
       474  -5471.7757      40             40             40            -186.6394      -228.19503     -192.08024     -139.64291     -5471.7757    
       475  -5471.7773      40             40             40            -126.42872     -153.88248     -126.98627     -98.417408     -5471.7773    
       476  -5471.7778      40             40             40            -124.92955     -137.76169     -131.10894     -105.91801     -5471.7778    
       477  -5471.7783      40             40             40            -96.952608     -110.31642     -97.835196     -82.706204     -5471.7783    
       478  -5471.7795      40             40             40            -112.69659     -125.47384     -109.97754     -102.63839     -5471.7795    
       479  -5471.7811      40             40             40            -162.46582     -227.13316     -131.51633     -128.74797     -5471.7811    
       480  -5471.7824      40             40             40            -208.71544     -303.12348     -175.79166     -147.23119     -5471.7824    
       481  -5471.7869      40             40             40            -210.87242     -262.03969     -191.56373     -179.01385     -5471.7869    
       482  -5471.7897      40             40             40            -111.36849     -138.64667     -87.59645      -107.86234     -5471.7897    
       483  -5471.7936      40             40             40            -78.82466      -68.336363     -84.481059     -83.656557     -5471.7936    
       484  -5471.7949      40             40             40            -154.76316     -164.19407     -173.90803     -126.18736     -5471.7949    
       485  -5471.795       40             40             40            -171.43252     -227.07878     -181.14384     -106.07493     -5471.795     
       486  -5471.7957      40             40             40            -137.63351     -206.41711     -130.39856     -76.084853     -5471.7957    
       487  -5471.7977      40             40             40            -137.93926     -174.51554     -139.00473     -100.29752     -5471.7977    
       488  -5471.7984      40             40             40            -124.06277     -149.12986     -129.84722     -93.211231     -5471.7984    
       489  -5471.7989      40             40             40            -148.84103     -164.68257     -154.83929     -127.00124     -5471.7989    
       490  -5471.8         40             40             40            -157.81678     -164.65357     -146.66757     -162.1292      -5471.8       
       491  -5471.8027      40             40             40            -183.58444     -199.61849     -189.5609      -161.57391     -5471.8027    
       492  -5471.8071      40             40             40            -225.57841     -248.552       -234.99183     -193.19141     -5471.8071    
       493  -5471.8123      40             40             40            -107.88547     -147.96483     -83.781347     -91.910231     -5471.8123    
       494  -5471.8139      40             40             40            -97.329959     -99.374662     -111.73884     -80.876373     -5471.8139    
       495  -5471.8179      40             40             40            -136.18306     -134.94342     -117.74623     -155.85952     -5471.8179    
       496  -5471.823       40             40             40            -126.74749     -144.71612     -61.621951     -173.90442     -5471.823     
       497  -5471.831       40             40             40            -195.49762     -173.97743     -262.43799     -150.07742     -5471.831     
       498  -5471.9472      40             40             40            -660.05619     -645.86388     -1025.4917     -308.813       -5471.9472    
       499  -5472.3134      40             40             40            -1120.4324     -1240.5313     -1751.1005     -369.66556     -5472.3134    
       500  -5473.4036      40             40             40            -1403.1343     -1991.6653     -1938.5254     -279.21222     -5473.4036    
       501  -5476.6488      40             40             40            -1154.9755     -2661.6646     -921.94686      118.68498     -5476.6488    
       502  -5484.8364      40             40             40            -1452.4595     -3648.1966     -379.3149      -329.86703     -5484.8364    
       503  -5495.9245      40             40             40            -3000.6011     -5717.0835     -2024.3548     -1260.3651     -5495.9245    
       504  -5510.5505      40             40             40            -4161.3549     -7445.1112     -2790.9922     -2247.9614     -5510.5505    
       505  -5527.804       40             40             40            -2891.6332     -6250.9984     -1525.1975     -898.70389     -5527.804     
       506  -5542.1168      40             40             40            -4359.2882     -6908.7222     -3805.1994     -2363.9429     -5542.1168    
       507  -5561.2824      40             40             40            -3097.4901     -7546.0803     -1095.2577     -651.13216     -5561.2824    
       508  -5591.6438      40             40             40            -1920.7784     -5687.4746     -190.60786      115.74733     -5591.6438    
       509  -5596.7679      40             40             40            -2156.7031     -3566.829      -2199.3366     -703.94378     -5596.7679    
       510  -5597.4256      40             40             40            -722.09777     -1412.387      -966.37507      212.46873     -5597.4256    
       511  -5597.7834      40             40             40            -655.95054     -661.84295     -1170.5349     -135.47377     -5597.7834    
       512  -5599.123       40             40             40            -2937.6131     -4019.6125     -3097.8501     -1695.3766     -5599.123     
       513  -5603.6228      40             40             40            -4797.6778     -8229.5924     -4145.9573     -2017.4837     -5603.6228    
       514  -5614.7348      40             40             40            -4179.9146     -7023.4735     -4043.7725     -1472.4977     -5614.7348    
       515  -5625.1072      40             40             40            -3778.6081     -1932.1812     -6073.3087     -3330.3345     -5625.1072    
       516  -5635.7421      40             40             40            -1283.04        3741.5525     -4707.2612     -2883.4114     -5635.7421    
       517  -5662.7109      40             40             40             1873.8532      5283.739       102.06423      235.75651     -5662.7109    
       518  -5698.5694      40             40             40            -1943.3186     -1574.1562     -2292.7785     -1963.021      -5698.5694    
       519  -5717.7518      40             40             40            -6809.1471     -5658.4734     -8910.9838     -5857.9841     -5717.7518    
       520  -5758.7642      40             40             40            -7806.8583     -7411.7073     -10459.232     -5549.6355     -5758.7642    
[...]
      3522  -8927.4906      40             40             40            -50.581589     -46.81163      -56.907726     -48.02541      -8927.4906    
      3523  -8927.4906      40             40             40            -73.608107     -86.818889     -70.971889     -63.033543     -8927.4906    
      3524  -8927.4907      40             40             40            -50.580651     -46.809716     -56.908905     -48.023333     -8927.4907    
      3525  -8927.4907      40             40             40            -73.607608     -86.814745     -70.972841     -63.035239     -8927.4907    
      3526  -8927.4907      40             40             40            -50.57971      -46.807805     -56.910072     -48.021252     -8927.4907    
      3527  -8927.4908      40             40             40            -73.607111     -86.810616     -70.973785     -63.036934     -8927.4908    
      3528  -8927.4908      40             40             40            -50.578763     -46.805897     -56.911226     -48.019167     -8927.4908    
      3529  -8927.4909      40             40             40            -73.606616     -86.806501     -70.974719     -63.038628     -8927.4909    
      3530  -8927.4909      40             40             40            -50.577812     -46.803992     -56.912367     -48.017077     -8927.4909    
      3531  -8927.491       40             40             40            -73.606122     -86.8024       -70.975645     -63.040321     -8927.491     
      3532  -8927.491       40             40             40            -50.576857     -46.80209      -56.913496     -48.014984     -8927.491     
      3533  -8927.4911      40             40             40            -73.60563      -86.798314     -70.976562     -63.042013     -8927.4911    
      3534  -8927.4911      40             40             40            -50.575897     -46.800191     -56.914612     -48.012887     -8927.4911    
      3535  -8927.4912      40             40             40            -73.605139     -86.794243     -70.977471     -63.043705     -8927.4912    
      3536  -8927.4912      40             40             40            -50.574932     -46.798296     -56.915716     -48.010786     -8927.4912    
      3537  -8927.4913      40             40             40            -73.60465      -86.790186     -70.978371     -63.045395     -8927.4913    
      3538  -8927.4913      40             40             40            -50.573963     -46.796403     -56.916807     -48.00868      -8927.4913    
      3539  -8927.4914      40             40             40            -73.604163     -86.786143     -70.979262     -63.047084     -8927.4914    
      3540  -8927.4914      40             40             40            -50.57299      -46.794514     -56.917885     -48.006571     -8927.4914    
      3541  -8927.4914      40             40             40            -73.603677     -86.782114     -70.980145     -63.048773     -8927.4914    
      3542  -8927.4915      40             40             40            -50.572012     -46.792627     -56.918952     -48.004458     -8927.4915    
      3543  -8927.4915      40             40             40            -73.603193     -86.7781       -70.98102      -63.05046      -8927.4915    
      3544  -8927.4916      40             40             40            -50.57103      -46.790744     -56.920005     -48.00234      -8927.4916    
      3545  -8927.4916      40             40             40            -73.602711     -86.7741       -70.981886     -63.052146     -8927.4916    
      3546  -8927.4917      40             40             40            -50.570043     -46.788864     -56.921047     -48.000219     -8927.4917    
      3547  -8927.4917      40             40             40            -73.60223      -86.770114     -70.982744     -63.053832     -8927.4917    
      3548  -8927.4918      40             40             40            -50.569052     -46.786986     -56.922076     -47.998094     -8927.4918    
      3549  -8927.4918      40             40             40            -73.601751     -86.766143     -70.983593     -63.055516     -8927.4918    
      3550  -8927.4919      40             40             40            -50.568057     -46.785112     -56.923093     -47.995965     -8927.4919    
      3551  -8927.4919      40             40             40            -73.601273     -86.762185     -70.984434     -63.0572       -8927.4919    
      3552  -8927.492       40             40             40            -50.567057     -46.783241     -56.924098     -47.993832     -8927.492     
      3553  -8927.492       40             40             40            -73.600797     -86.758242     -70.985266     -63.058883     -8927.492     
      3554  -8927.4921      40             40             40            -50.566052     -46.781373     -56.92509      -47.991695     -8927.4921    
      3555  -8927.4921      40             40             40            -73.600322     -86.754312     -70.986091     -63.060564     -8927.4921    
      3556  -8927.4922      40             40             40            -50.565044     -46.779507     -56.926071     -47.989554     -8927.4922    
      3557  -8927.4922      40             40             40            -73.59985      -86.750397     -70.986907     -63.062245     -8927.4922    
      3558  -8927.4922      40             40             40            -50.564031     -46.777645     -56.927039     -47.987409     -8927.4922    
      3559  -8927.4923      40             40             40            -73.599378     -86.746496     -70.987715     -63.063925     -8927.4923    
      3560  -8927.4923      40             40             40            -50.563014     -46.775785     -56.927995     -47.98526      -8927.4923    
      3561  -8927.4924      40             40             40            -73.598909     -86.742608     -70.988514     -63.065604     -8927.4924    
      3562  -8927.4924      40             40             40            -50.561992     -46.773929     -56.92894      -47.983107     -8927.4924    
      3563  -8927.4925      40             40             40            -73.598441     -86.738735     -70.989306     -63.067282     -8927.4925    
      3564  -8927.4925      40             40             40            -50.560966     -46.772075     -56.929872     -47.98095      -8927.4925    
      3565  -8927.4926      40             40             40            -73.597975     -86.734875     -70.990089     -63.068959     -8927.4926    
      3566  -8927.4926      40             40             40            -50.559936     -46.770225     -56.930792     -47.97879      -8927.4926    
      3567  -8927.4927      40             40             40            -73.59751      -86.73103      -70.990865     -63.070635     -8927.4927    
      3568  -8927.4927      40             40             40            -50.558901     -46.768377     -56.931701     -47.976625     -8927.4927    
      3569  -8927.4928      40             40             40            -73.597047     -86.727198     -70.991632     -63.07231      -8927.4928    
      3570  -8927.4928      40             40             40            -50.557862     -46.766532     -56.932598     -47.974457     -8927.4928    
      3571  -8927.4928      40             40             40            -73.596585     -86.72338      -70.992391     -63.073985     -8927.4928    
      3572  -8927.4929      40             40             40            -50.556819     -46.76469      -56.933483     -47.972285     -8927.4929    
      3573  -8927.4929      40             40             40            -73.596125     -86.719575     -70.993143     -63.075658     -8927.4929    
      3574  -8927.493       40             40             40            -50.555772     -46.762851     -56.934356     -47.970108     -8927.493     
      3575  -8927.493       40             40             40            -73.595667     -86.715785     -70.993886     -63.07733      -8927.493     
      3576  -8927.4931      40             40             40            -50.55472      -46.761014     -56.935217     -47.967928     -8927.4931    
      3577  -8927.4931      40             40             40            -73.595211     -86.712008     -70.994622     -63.079002     -8927.4931    
      3578  -8927.4932      40             40             40            -50.553664     -46.759181     -56.936067     -47.965745     -8927.4932    
      3579  -8927.4932      40             40             40            -73.594756     -86.708245     -70.99535      -63.080673     -8927.4932    
      3580  -8927.4933      40             40             40            -50.552604     -46.75735      -56.936905     -47.963557     -8927.4933    
      3581  -8927.4933      40             40             40            -73.594302     -86.704495     -70.996069     -63.082342     -8927.4933    
      3582  -8927.4934      40             40             40            -50.55154      -46.755522     -56.937731     -47.961365     -8927.4934    
      3583  -8927.4934      40             40             40            -73.593851     -86.700759     -70.996781     -63.084011     -8927.4934    
      3584  -8927.4935      40             40             40            -50.550471     -46.753697     -56.938546     -47.95917      -8927.4935    
      3585  -8927.4935      40             40             40            -73.5934       -86.697036     -70.997486     -63.085679     -8927.4935    
      3586  -8927.4936      40             40             40            -50.549398     -46.751875     -56.93935      -47.95697      -8927.4936    
      3587  -8927.4936      40             40             40            -73.592952     -86.693328     -70.998182     -63.087346     -8927.4936    
      3588  -8927.4936      40             40             40            -50.548321     -46.750055     -56.940142     -47.954767     -8927.4936    
      3589  -8927.4937      40             40             40            -73.592505     -86.689632     -70.998871     -63.089012     -8927.4937    
      3590  -8927.4937      40             40             40            -50.54724      -46.748238     -56.940922     -47.95256      -8927.4937    
      3591  -8927.4938      40             40             40            -73.59206      -86.68595      -70.999552     -63.090677     -8927.4938    
      3592  -8927.4938      40             40             40            -50.546155     -46.746424     -56.941691     -47.95035      -8927.4938    
      3593  -8927.4939      40             40             40            -73.591616     -86.682281     -71.000226     -63.092342     -8927.4939    
      3594  -8927.4939      40             40             40            -50.545065     -46.744613     -56.942449     -47.948135     -8927.4939    
      3595  -8927.494       40             40             40            -73.591174     -86.678626     -71.000892     -63.094005     -8927.494     
      3596  -8927.494       40             40             40            -50.543972     -46.742804     -56.943195     -47.945917     -8927.494     
      3597  -8927.4941      40             40             40            -73.590734     -86.674984     -71.00155      -63.095668     -8927.4941    
      3598  -8927.4941      40             40             40            -50.542874     -46.740998     -56.94393      -47.943695     -8927.4941    
      3599  -8927.4941      40             40             40            -73.590295     -86.671356     -71.002201     -63.097329     -8927.4941    
      3600  -8927.4942      40             40             40            -50.541772     -46.739194     -56.944654     -47.941469     -8927.4942    
      3601  -8927.4942      40             40             40            -73.589858     -86.667741     -71.002844     -63.09899      -8927.4942    
      3602  -8927.4943      40             40             40            -50.540666     -46.737394     -56.945367     -47.939239     -8927.4943    
      3603  -8927.4943      40             40             40            -73.589423     -86.664139     -71.003479     -63.10065      -8927.4943    
      3604  -8927.4944      40             40             40            -50.539556     -46.735596     -56.946068     -47.937005     -8927.4944    
      3605  -8927.4944      40             40             40            -73.588989     -86.66055      -71.004108     -63.102309     -8927.4944    
      3606  -8927.4945      40             40             40            -50.538442     -46.7338       -56.946758     -47.934768     -8927.4945    
      3607  -8927.4945      40             40             40            -73.588557     -86.656974     -71.004729     -63.103967     -8927.4945    
      3608  -8927.4946      40             40             40            -50.537324     -46.732008     -56.947437     -47.932527     -8927.4946    
      3609  -8927.4946      40             40             40            -73.588126     -86.653412     -71.005342     -63.105624     -8927.4946    
      3610  -8927.4947      40             40             40            -50.536202     -46.730217     -56.948105     -47.930282     -8927.4947    
      3611  -8927.4947      40             40             40            -73.587697     -86.649863     -71.005948     -63.107281     -8927.4947    
      3612  -8927.4948      40             40             40            -50.535075     -46.72843      -56.948762     -47.928034     -8927.4948    
      3613  -8927.4948      40             40             40            -73.58727      -86.646327     -71.006547     -63.108936     -8927.4948    
      3614  -8927.4948      40             40             40            -50.533945     -46.726645     -56.949408     -47.925781     -8927.4948    
      3615  -8927.4949      40             40             40            -73.586844     -86.642803     -71.007138     -63.110591     -8927.4949    
      3616  -8927.4949      40             40             40            -50.53281      -46.724863     -56.950043     -47.923525     -8927.4949    
      3617  -8927.495       40             40             40            -73.58642      -86.639293     -71.007722     -63.112245     -8927.495     
      3618  -8927.495       40             40             40            -50.531672     -46.723083     -56.950668     -47.921265     -8927.495     
      3619  -8927.4951      40             40             40            -73.585998     -86.635796     -71.008299     -63.113898     -8927.4951    
      3620  -8927.4951      40             40             40            -50.530529     -46.721306     -56.951281     -47.919002     -8927.4951    
      3621  -8927.4952      40             40             40            -73.585577     -86.632312     -71.008869     -63.11555      -8927.4952    
      3622  -8927.4952      40             40             40            -50.529383     -46.719531     -56.951883     -47.916735     -8927.4952    
      3623  -8927.4953      40             40             40            -73.585158     -86.628841     -71.009431     -63.117201     -8927.4953    
      3624  -8927.4953      40             40             40            -50.528232     -46.717759     -56.952475     -47.914464     -8927.4953    
      3625  -8927.4953      40             40             40            -73.58474      -86.625383     -71.009986     -63.118851     -8927.4953    
      3626  -8927.4954      40             40             40            -50.527078     -46.715989     -56.953055     -47.912189     -8927.4954    
      3627  -8927.4954      40             40             40            -73.584324     -86.621937     -71.010535     -63.120501     -8927.4954    
      3628  -8927.4955      40             40             40            -50.525919     -46.714222     -56.953625     -47.909911     -8927.4955    
      3629  -8927.4955      40             40             40            -73.58391      -86.618505     -71.011076     -63.12215      -8927.4955    
      3630  -8927.4956      40             40             40            -50.524757     -46.712457     -56.954185     -47.907629     -8927.4956    
      3631  -8927.4956      40             40             40            -73.583497     -86.615085     -71.01161      -63.123797     -8927.4956    
      3632  -8927.4957      40             40             40            -50.523591     -46.710695     -56.954733     -47.905343     -8927.4957    
      3633  -8927.4957      40             40             40            -73.583086     -86.611678     -71.012137     -63.125444     -8927.4957    
      3634  -8927.4958      40             40             40            -50.52242      -46.708936     -56.955271     -47.903054     -8927.4958    
      3635  -8927.4958      40             40             40            -73.582677     -86.608284     -71.012656     -63.127091     -8927.4958    
      3636  -8927.4959      40             40             40            -50.521246     -46.707178     -56.955799     -47.900761     -8927.4959    
      3637  -8927.4959      40             40             40            -73.582269     -86.604902     -71.013169     -63.128736     -8927.4959    
      3638  -8927.496       40             40             40            -50.520068     -46.705424     -56.956315     -47.898464     -8927.496     
      3639  -8927.496       40             40             40            -73.581863     -86.601533     -71.013675     -63.13038      -8927.496     
      3640  -8927.496       40             40             40            -50.518886     -46.703671     -56.956822     -47.896164     -8927.496     
      3641  -8927.4961      40             40             40            -73.581459     -86.598177     -71.014174     -63.132024     -8927.4961    
      3642  -8927.4961      40             40             40            -50.5177       -46.701921     -56.957317     -47.89386      -8927.4961    
      3643  -8927.4962      40             40             40            -73.581056     -86.594834     -71.014666     -63.133667     -8927.4962    
      3644  -8927.4962      40             40             40            -50.51651      -46.700174     -56.957803     -47.891552     -8927.4962    
Loop time of 10.2267 on 1 procs for 3644 steps with 150 atoms

12.5% CPU use with 1 MPI tasks x 1 OpenMP threads

Minimization stats:
  Stopping criterion = max force evaluations
  Energy initial, next-to-last, final = 
      1212.90998046316  -8927.49617422051  -8927.49622618966
  Force two-norm initial, final = 8200.6623 1.1510104
  Force max component initial, final = 3427.947 0.66537465
  Final line search alpha, max atom move = 0.13583408 0.09038055
  Iterations, force evaluations = 3644 10000

MPI task timing breakdown:
Section |  min time  |  avg time  |  max time  |%varavg| %total
---------------------------------------------------------------
Pair    | 8.7416     | 8.7416     | 8.7416     |   0.0 | 85.48
Neigh   | 0.033686   | 0.033686   | 0.033686   |   0.0 |  0.33
Comm    | 0.031192   | 0.031192   | 0.031192   |   0.0 |  0.31
Output  | 1.374      | 1.374      | 1.374      |   0.0 | 13.44
Modify  | 0          | 0          | 0          |   0.0 |  0.00
Other   |            | 0.04624    |            |       |  0.45

Nlocal:            150 ave         150 max         150 min
Histogram: 1 0 0 0 0 0 0 0 0 0
Nghost:            462 ave         462 max         462 min
Histogram: 1 0 0 0 0 0 0 0 0 0
Neighs:           1461 ave        1461 max        1461 min
Histogram: 1 0 0 0 0 0 0 0 0 0

Total # of neighbors = 1461
Ave neighs/atom = 9.74
Neighbor list builds = 52
Dangerous builds = 0

variable natoms equal "count(all)"
variable teng equal "c_eatoms"
variable length equal "lx"
variable ecoh equal "v_teng/v_natoms"

print "Total energy (eV) = ${teng};"
Total energy (eV) = -8927.49622618967;
print "Number of atoms = ${natoms};"
Number of atoms = 150;
print "Lattice constant (Angstoms) = ${length};"
Lattice constant (Angstoms) = 40;
print "Cohesive energy (eV) = ${ecoh};"
Cohesive energy (eV) = -59.5166415079311;

print "All done!"
All done!
Total wall time: 0:00:10
