# LAMMPS data file for two oxygen atoms in a large simulation box

2 atoms
1 atom types

0.0 100.0 xlo xhi
0.0 100.0 ylo yhi
0.0 100.0 zlo zhi

Masses

1 16.0

Atoms

1 1 -2.0 49.50 49.50 49.50
2 1 -2.0 50.0 50.0 50.0
