 # "Ce112 O224"
  
         336  atoms
           2  atom types
 
      0.000000000000      15.464300000000  xlo xhi
      0.000000000000      13.392476651744  ylo yhi
      0.000000000000     181.307000000000  zlo zhi
      7.732150000000       0.000000000000       0.000000000000  xy xz yz
 
Masses
 
            1   140.11600000            # Ce
            2   15.99900000             # O
 
Atoms # atomic
 
         1         1   4.0        7.732150000000       13.392476651744       79.999900680000
         2         1   4.0        5.799112500000       3.348119162936       79.999900680000
         3         1   4.0        11.598225000000       13.392476651744       79.999900680000
         4         1   4.0        1.933037500000       3.348119162936       79.999900680000
         5         2   -2.0        15.464300000000       13.392476651744       82.367770100000
         6         2   -2.0        7.732072678500       4.464114242326       80.788586130000
         7         2   -2.0        5.799035178500       1.115995079390       80.788586130000
         8         2   -2.0        9.665187500000       3.348119162936       82.367770100000
         9         2   -2.0        5.799112500000       3.348119162936       82.367770100000
         10         2   -2.0        1.932960178500       1.115995079390       80.788586130000
         11         2   -2.0        3.865997678500       4.464114242326       80.788586130000
         12         2   -2.0        11.598225000000       13.392476651744       82.367770100000
         13         1   4.0        7.732072678500       4.464114242326       83.156455550000
         14         1   4.0        1.932960178500       1.115995079390       83.156455550000
         15         1   4.0        3.865997678500       4.464114242326       83.156455550000
         16         1   4.0        5.799035178500       1.115995079390       83.156455550000
         17         2   -2.0        7.732072678500       4.464114242326       85.524324970000
         18         2   -2.0        3.866152321500       2.232124083546       83.945141000000
         19         2   -2.0        5.799189821500       5.580243246482       83.945141000000
         20         2   -2.0        5.799035178500       1.115995079390       85.524324970000
         21         2   -2.0        1.932960178500       1.115995079390       85.524324970000
         22         2   -2.0        9.665264821500       5.580243246482       83.945141000000
         23         2   -2.0        7.732227321500       2.232124083546       83.945141000000
         24         2   -2.0        3.865997678500       4.464114242326       85.524324970000
         25         1   4.0        3.866152321500       2.232124083546       86.313010420000
         26         1   4.0        9.665264821500       5.580243246482       86.313010420000
         27         1   4.0        7.732227321500       2.232124083546       86.313010420000
         28         1   4.0        5.799189821500       5.580243246482       86.313010420000
         29         2   -2.0        3.866152321500       2.232124083546       88.680879840000
         30         2   -2.0        15.464300000000       13.392476651744       87.101695870000
         31         2   -2.0        9.665187500000       3.348119162936       87.101695870000
         32         2   -2.0        5.799189821500       5.580243246482       88.680879840000
         33         2   -2.0        9.665264821500       5.580243246482       88.680879840000
         34         2   -2.0        5.799112500000       3.348119162936       87.101695870000
         35         2   -2.0        11.598225000000       13.392476651744       87.101695870000
         36         2   -2.0        7.732227321500       2.232124083546       88.680879840000
         37         1   4.0        15.464300000000       13.392476651744       89.469565290000
         38         1   4.0        5.799112500000       3.348119162936       89.469565290000
         39         1   4.0        11.598225000000       13.392476651744       89.469565290000
         40         1   4.0        9.665187500000       3.348119162936       89.469565290000
         41         2   -2.0        7.732150000000       0.000000000000       91.837434710000
         42         2   -2.0        7.732072678500       4.464114242326       90.258250740000
         43         2   -2.0        5.799035178500       1.115995079390       90.258250740000
         44         2   -2.0        9.665187500000       3.348119162936       91.837434710000
         45         2   -2.0        5.799112500000       3.348119162936       91.837434710000
         46         2   -2.0        1.932960178500       1.115995079390       90.258250740000
         47         2   -2.0        3.865997678500       4.464114242326       90.258250740000
         48         2   -2.0        3.866075000000       0.000000000000       91.837434710000
         49         1   4.0        7.732072678500       4.464114242326       92.626120160000
         50         1   4.0        1.932960178500       1.115995079390       92.626120160000
         51         1   4.0        3.865997678500       4.464114242326       92.626120160000
         52         1   4.0        5.799035178500       1.115995079390       92.626120160000
         53         2   -2.0        7.732072678500       4.464114242326       94.993989580000
         54         2   -2.0        3.866152321500       2.232124083546       93.414805610000
         55         2   -2.0        5.799189821500       5.580243246482       93.414805610000
         56         2   -2.0        5.799035178500       1.115995079390       94.993989580000
         57         2   -2.0        1.932960178500       1.115995079390       94.993989580000
         58         2   -2.0        9.665264821500       5.580243246482       93.414805610000
         59         2   -2.0        7.732227321500       2.232124083546       93.414805610000
         60         2   -2.0        3.865997678500       4.464114242326       94.993989580000
         61         1   4.0        3.866152321500       2.232124083546       95.782675030000
         62         1   4.0        9.665264821500       5.580243246482       95.782675030000
         63         1   4.0        7.732227321500       2.232124083546       95.782675030000
         64         1   4.0        5.799189821500       5.580243246482       95.782675030000
         65         2   -2.0        3.866152321500       2.232124083546       98.150544450000
         66         2   -2.0        15.464300000000       13.392476651744       96.571360480000
         67         2   -2.0        9.665187500000       3.348119162936       96.571360480000
         68         2   -2.0        5.799189821500       5.580243246482       98.150544450000
         69         2   -2.0        9.665264821500       5.580243246482       98.150544450000
         70         2   -2.0        5.799112500000       3.348119162936       96.571360480000
         71         2   -2.0        11.598225000000       13.392476651744       96.571360480000
         72         2   -2.0        7.732227321500       2.232124083546       98.150544450000
         73         1   4.0        15.464300000000       13.392476651744       98.939229900000
         74         1   4.0        5.799112500000       3.348119162936       98.939229900000
         75         1   4.0        11.598225000000       13.392476651744       98.939229900000
         76         1   4.0        9.665187500000       3.348119162936       98.939229900000
         77         2   -2.0        15.464300000000       13.392476651744       101.307099320000
         78         2   -2.0        7.732072678500       4.464114242326       99.727915350000
         79         2   -2.0        5.799035178500       1.115995079390       99.727915350000
         80         2   -2.0        9.665187500000       3.348119162936       101.307099320000
         81         2   -2.0        5.799112500000       3.348119162936       101.307099320000
         82         2   -2.0        1.932960178500       1.115995079390       99.727915350000
         83         2   -2.0        3.865997678500       4.464114242326       99.727915350000
         84         2   -2.0        11.598225000000       13.392476651744       101.307099320000
         85         1   4.0        3.866075000000       6.696238325872       79.999900680000
         86         1   4.0        9.665187500000       10.044357488808       79.999900680000
         87         1   4.0        7.732150000000       6.696238325872       79.999900680000
         88         1   4.0        5.799112500000       10.044357488808       79.999900680000
         89         2   -2.0        11.598225000000       6.696238325872       82.367770100000
         90         2   -2.0        11.598147678500       11.160352568198       80.788586130000
         91         2   -2.0        9.665110178500       7.812233405262       80.788586130000
         92         2   -2.0        13.531262500000       10.044357488808       82.367770100000
         93         2   -2.0        9.665187500000       10.044357488808       82.367770100000
         94         2   -2.0        5.799035178500       7.812233405262       80.788586130000
         95         2   -2.0        7.732072678500       11.160352568198       80.788586130000
         96         2   -2.0        7.732150000000       6.696238325872       82.367770100000
         97         1   4.0        11.598147678500       11.160352568198       83.156455550000
         98         1   4.0        5.799035178500       7.812233405262       83.156455550000
         99         1   4.0        7.732072678500       11.160352568198       83.156455550000
         100         1   4.0        9.665110178500       7.812233405262       83.156455550000
         101         2   -2.0        11.598147678500       11.160352568198       85.524324970000
         102         2   -2.0        7.732227321500       8.928362409418       83.945141000000
         103         2   -2.0        9.665264821500       12.276481572354       83.945141000000
         104         2   -2.0        9.665110178500       7.812233405262       85.524324970000
         105         2   -2.0        5.799035178500       7.812233405262       85.524324970000
         106         2   -2.0        13.531339821500       12.276481572354       83.945141000000
         107         2   -2.0        11.598302321500       8.928362409418       83.945141000000
         108         2   -2.0        7.732072678500       11.160352568198       85.524324970000
         109         1   4.0        7.732227321500       8.928362409418       86.313010420000
         110         1   4.0        13.531339821500       12.276481572354       86.313010420000
         111         1   4.0        11.598302321500       8.928362409418       86.313010420000
         112         1   4.0        9.665264821500       12.276481572354       86.313010420000
         113         2   -2.0        7.732227321500       8.928362409418       88.680879840000
         114         2   -2.0        11.598225000000       6.696238325872       87.101695870000
         115         2   -2.0        13.531262500000       10.044357488808       87.101695870000
         116         2   -2.0        9.665264821500       12.276481572354       88.680879840000
         117         2   -2.0        13.531339821500       12.276481572354       88.680879840000
         118         2   -2.0        9.665187500000       10.044357488808       87.101695870000
         119         2   -2.0        7.732150000000       6.696238325872       87.101695870000
         120         2   -2.0        11.598302321500       8.928362409418       88.680879840000
         121         1   4.0        11.598225000000       6.696238325872       89.469565290000
         122         1   4.0        9.665187500000       10.044357488808       89.469565290000
         123         1   4.0        7.732150000000       6.696238325872       89.469565290000
         124         1   4.0        13.531262500000       10.044357488808       89.469565290000
         125         2   -2.0        11.598225000000       6.696238325872       136.837434710000
         126         2   -2.0        11.598147678500       11.160352568198       90.258250740000
         127         2   -2.0        9.665110178500       7.812233405262       90.258250740000
         128         2   -2.0        13.531262500000       10.044357488808       91.837434710000
         129         2   -2.0        9.665187500000       10.044357488808       91.837434710000
         130         2   -2.0        5.799035178500       7.812233405262       90.258250740000
         131         2   -2.0        7.732072678500       11.160352568198       90.258250740000
         132         2   -2.0        7.732150000000       6.696238325872       91.837434710000
         133         1   4.0        11.598147678500       11.160352568198       92.626120160000
         134         1   4.0        5.799035178500       7.812233405262       92.626120160000
         135         1   4.0        7.732072678500       11.160352568198       92.626120160000
         136         1   4.0        9.665110178500       7.812233405262       92.626120160000
         137         2   -2.0        11.598147678500       11.160352568198       94.993989580000
         138         2   -2.0        7.732227321500       8.928362409418       93.414805610000
         139         2   -2.0        9.665264821500       12.276481572354       93.414805610000
         140         2   -2.0        9.665110178500       7.812233405262       94.993989580000
         141         2   -2.0        5.799035178500       7.812233405262       94.993989580000
         142         2   -2.0        13.531339821500       12.276481572354       93.414805610000
         143         2   -2.0        11.598302321500       8.928362409418       93.414805610000
         144         2   -2.0        7.732072678500       11.160352568198       94.993989580000
         145         1   4.0        7.732227321500       8.928362409418       95.782675030000
         146         1   4.0        13.531339821500       12.276481572354       95.782675030000
         147         1   4.0        11.598302321500       8.928362409418       95.782675030000
         148         1   4.0        9.665264821500       12.276481572354       95.782675030000
         149         2   -2.0        7.732227321500       8.928362409418       98.150544450000
         150         2   -2.0        11.598225000000       6.696238325872       96.571360480000
         151         2   -2.0        13.531262500000       10.044357488808       96.571360480000
         152         2   -2.0        9.665264821500       12.276481572354       98.150544450000
         153         2   -2.0        13.531339821500       12.276481572354       98.150544450000
         154         2   -2.0        9.665187500000       10.044357488808       96.571360480000
         155         2   -2.0        7.732150000000       6.696238325872       96.571360480000
         156         2   -2.0        11.598302321500       8.928362409418       98.150544450000
         157         1   4.0        11.598225000000       6.696238325872       98.939229900000
         158         1   4.0        9.665187500000       10.044357488808       98.939229900000
         159         1   4.0        7.732150000000       6.696238325872       98.939229900000
         160         1   4.0        13.531262500000       10.044357488808       98.939229900000
         161         2   -2.0        11.598225000000       6.696238325872       101.307099320000
         162         2   -2.0        11.598147678500       11.160352568198       99.727915350000
         163         2   -2.0        9.665110178500       7.812233405262       99.727915350000
         164         2   -2.0        13.531262500000       10.044357488808       101.307099320000
         165         2   -2.0        9.665187500000       10.044357488808       101.307099320000
         166         2   -2.0        5.799035178500       7.812233405262       99.727915350000
         167         2   -2.0        7.732072678500       11.160352568198       99.727915350000
         168         2   -2.0        7.732150000000       6.696238325872       101.307099320000
         169         1   4.0        15.464300000000       13.392476651744       79.999900680000
         170         1   4.0        13.531262500000       3.348119162936       79.999900680000
         171         1   4.0        19.330375000000       13.392476651744       79.999900680000
         172         1   4.0        9.665187500000       3.348119162936       79.999900680000
         173         2   -2.0        7.732150000000       13.392476651744       82.367770100000
         174         2   -2.0        15.464222678500       4.464114242326       80.788586130000
         175         2   -2.0        13.531185178500       1.115995079390       80.788586130000
         176         2   -2.0        1.933037500000       3.348119162936       82.367770100000
         177         2   -2.0        13.531262500000       3.348119162936       82.367770100000
         178         2   -2.0        9.665110178500       1.115995079390       80.788586130000
         179         2   -2.0        11.598147678500       4.464114242326       80.788586130000
         180         2   -2.0        19.330375000000       13.392476651744       82.367770100000
         181         1   4.0        15.464222678500       4.464114242326       83.156455550000
         182         1   4.0        9.665110178500       1.115995079390       83.156455550000
         183         1   4.0        11.598147678500       4.464114242326       83.156455550000
         184         1   4.0        13.531185178500       1.115995079390       83.156455550000
         185         2   -2.0        15.464222678500       4.464114242326       85.524324970000
         186         2   -2.0        11.598302321500       2.232124083546       83.945141000000
         187         2   -2.0        13.531339821500       5.580243246482       83.945141000000
         188         2   -2.0        13.531185178500       1.115995079390       85.524324970000
         189         2   -2.0        9.665110178500       1.115995079390       85.524324970000
         190         2   -2.0        17.397414821500       5.580243246482       83.945141000000
         191         2   -2.0        15.464377321500       2.232124083546       83.945141000000
         192         2   -2.0        11.598147678500       4.464114242326       85.524324970000
         193         1   4.0        11.598302321500       2.232124083546       86.313010420000
         194         1   4.0        17.397414821500       5.580243246482       86.313010420000
         195         1   4.0        15.464377321500       2.232124083546       86.313010420000
         196         1   4.0        13.531339821500       5.580243246482       86.313010420000
         197         2   -2.0        11.598302321500       2.232124083546       88.680879840000
         198         2   -2.0        7.732150000000       13.392476651744       87.101695870000
         199         2   -2.0        1.933037500000       3.348119162936       87.101695870000
         200         2   -2.0        13.531339821500       5.580243246482       88.680879840000
         201         2   -2.0        17.397414821500       5.580243246482       88.680879840000
         202         2   -2.0        13.531262500000       3.348119162936       87.101695870000
         203         2   -2.0        19.330375000000       13.392476651744       87.101695870000
         204         2   -2.0        15.464377321500       2.232124083546       88.680879840000
         205         1   4.0        7.732150000000       13.392476651744       89.469565290000
         206         1   4.0        13.531262500000       3.348119162936       89.469565290000
         207         1   4.0        19.330375000000       13.392476651744       89.469565290000
         208         1   4.0        1.933037500000       3.348119162936       89.469565290000
         209         2   -2.0        0.000000000000       0.000000000000       91.837434710000
         210         2   -2.0        15.464222678500       4.464114242326       90.258250740000
         211         2   -2.0        13.531185178500       1.115995079390       90.258250740000
         212         2   -2.0        1.933037500000       3.348119162936       91.837434710000
         213         2   -2.0        13.531262500000       3.348119162936       91.837434710000
         214         2   -2.0        9.665110178500       1.115995079390       90.258250740000
         215         2   -2.0        11.598147678500       4.464114242326       90.258250740000
         216         2   -2.0        11.598225000000       0.000000000000       91.837434710000
         217         1   4.0        15.464222678500       4.464114242326       92.626120160000
         218         1   4.0        9.665110178500       1.115995079390       92.626120160000
         219         1   4.0        11.598147678500       4.464114242326       92.626120160000
         220         1   4.0        13.531185178500       1.115995079390       92.626120160000
         221         2   -2.0        15.464222678500       4.464114242326       94.993989580000
         222         2   -2.0        11.598302321500       2.232124083546       93.414805610000
         223         2   -2.0        13.531339821500       5.580243246482       93.414805610000
         224         2   -2.0        13.531185178500       1.115995079390       94.993989580000
         225         2   -2.0        9.665110178500       1.115995079390       94.993989580000
         226         2   -2.0        17.397414821500       5.580243246482       93.414805610000
         227         2   -2.0        15.464377321500       2.232124083546       93.414805610000
         228         2   -2.0        11.598147678500       4.464114242326       94.993989580000
         229         1   4.0        11.598302321500       2.232124083546       95.782675030000
         230         1   4.0        17.397414821500       5.580243246482       95.782675030000
         231         1   4.0        15.464377321500       2.232124083546       95.782675030000
         232         1   4.0        13.531339821500       5.580243246482       95.782675030000
         233         2   -2.0        11.598302321500       2.232124083546       98.150544450000
         234         2   -2.0        23.196450000000       13.392476651744       96.571360480000
         235         2   -2.0        1.933037500000       3.348119162936       96.571360480000
         236         2   -2.0        13.531339821500       5.580243246482       98.150544450000
         237         2   -2.0        17.397414821500       5.580243246482       98.150544450000
         238         2   -2.0        13.531262500000       3.348119162936       96.571360480000
         239         2   -2.0        19.330375000000       13.392476651744       96.571360480000
         240         2   -2.0        15.464377321500       2.232124083546       98.150544450000
         241         1   4.0        23.196450000000       13.392476651744       98.939229900000
         242         1   4.0        13.531262500000       3.348119162936       98.939229900000
         243         1   4.0        19.330375000000       13.392476651744       98.939229900000
         244         1   4.0        1.933037500000       3.348119162936       98.939229900000
         245         2   -2.0        23.196450000000       13.392476651744       101.307099320000
         246         2   -2.0        15.464222678500       4.464114242326       99.727915350000
         247         2   -2.0        13.531185178500       1.115995079390       99.727915350000
         248         2   -2.0        1.933037500000       3.348119162936       101.307099320000
         249         2   -2.0        13.531262500000       3.348119162936       101.307099320000
         250         2   -2.0        9.665110178500       1.115995079390       99.727915350000
         251         2   -2.0        11.598147678500       4.464114242326       99.727915350000
         252         2   -2.0        19.330375000000       13.392476651744       101.307099320000
         253         1   4.0        11.598225000000       6.696238325872       79.999900680000
         254         1   4.0        17.397337500000       10.044357488808       79.999900680000
         255         1   4.0        15.464300000000       6.696238325872       79.999900680000
         256         1   4.0        13.531262500000       10.044357488808       79.999900680000
         257         2   -2.0        3.866075000000       6.696238325872       82.367770100000
         258         2   -2.0        19.330297678500       11.160352568198       80.788586130000
         259         2   -2.0        17.397260178500       7.812233405262       80.788586130000
         260         2   -2.0        5.799112500000       10.044357488808       82.367770100000
         261         2   -2.0        17.397337500000       10.044357488808       82.367770100000
         262         2   -2.0        13.531185178500       7.812233405262       80.788586130000
         263         2   -2.0        15.464222678500       11.160352568198       80.788586130000
         264         2   -2.0        15.464300000000       6.696238325872       82.367770100000
         265         1   4.0        19.330297678500       11.160352568198       83.156455550000
         266         1   4.0        13.531185178500       7.812233405262       83.156455550000
         267         1   4.0        15.464222678500       11.160352568198       83.156455550000
         268         1   4.0        17.397260178500       7.812233405262       83.156455550000
         269         2   -2.0        19.330297678500       11.160352568198       85.524324970000
         270         2   -2.0        15.464377321500       8.928362409418       83.945141000000
         271         2   -2.0        17.397414821500       12.276481572354       83.945141000000
         272         2   -2.0        17.397260178500       7.812233405262       85.524324970000
         273         2   -2.0        13.531185178500       7.812233405262       85.524324970000
         274         2   -2.0        21.263489821500       12.276481572354       83.945141000000
         275         2   -2.0        19.330452321500       8.928362409418       83.945141000000
         276         2   -2.0        15.464222678500       11.160352568198       85.524324970000
         277         1   4.0        15.464377321500       8.928362409418       86.313010420000
         278         1   4.0        21.263489821500       12.276481572354       86.313010420000
         279         1   4.0        19.330452321500       8.928362409418       86.313010420000
         280         1   4.0        17.397414821500       12.276481572354       86.313010420000
         281         2   -2.0        15.464377321500       8.928362409418       88.680879840000
         282         2   -2.0        3.866075000000       6.696238325872       87.101695870000
         283         2   -2.0        21.263412500000       10.044357488808       87.101695870000
         284         2   -2.0        17.397414821500       12.276481572354       88.680879840000
         285         2   -2.0        21.263489821500       12.276481572354       88.680879840000
         286         2   -2.0        17.397337500000       10.044357488808       87.101695870000
         287         2   -2.0        15.464300000000       6.696238325872       87.101695870000
         288         2   -2.0        19.330452321500       8.928362409418       88.680879840000
         289         1   4.0        3.866075000000       6.696238325872       89.469565290000
         290         1   4.0        17.397337500000       10.044357488808       89.469565290000
         291         1   4.0        15.464300000000       6.696238325872       89.469565290000
         292         1   4.0        21.263412500000       10.044357488808       89.469565290000
         293         2   -2.0        3.866075000000       6.696238325872       91.837434710000
         294         2   -2.0        19.330297678500       11.160352568198       90.258250740000
         295         2   -2.0        17.397260178500       7.812233405262       90.258250740000
         296         2   -2.0        5.799112500000       10.044357488808       91.837434710000
         297         2   -2.0        17.397337500000       10.044357488808       91.837434710000
         298         2   -2.0        13.531185178500       7.812233405262       90.258250740000
         299         2   -2.0        15.464222678500       11.160352568198       90.258250740000
         300         2   -2.0        15.464300000000       6.696238325872       91.837434710000
         301         1   4.0        19.330297678500       11.160352568198       92.626120160000
         302         1   4.0        13.531185178500       7.812233405262       92.626120160000
         303         1   4.0        15.464222678500       11.160352568198       92.626120160000
         304         1   4.0        17.397260178500       7.812233405262       92.626120160000
         305         2   -2.0        19.330297678500       11.160352568198       94.993989580000
         306         2   -2.0        15.464377321500       8.928362409418       93.414805610000
         307         2   -2.0        17.397414821500       12.276481572354       93.414805610000
         308         2   -2.0        17.397260178500       7.812233405262       94.993989580000
         309         2   -2.0        13.531185178500       7.812233405262       94.993989580000
         310         2   -2.0        21.263489821500       12.276481572354       93.414805610000