# LAMMPS data file for two oxygen atoms in a large simulation box

2 atoms
1 atom types

0.0 100.0 xlo xhi
0.0 100.0 ylo yhi
0.0 100.0 zlo zhi

Masses

1 16.0

Atoms

1 1 -2.0 25.0 25.0 25.0
2 1 -2.0 75.0 75.0 75.0
