 # "Ce112 O224"
  
         336  atoms
           2  atom types
 
      0.000000000000      15.464300000000  xlo xhi
      0.000000000000      13.392476651744  ylo yhi
      0.000000000000      121.307300000000  zlo zhi
      7.732150000000       0.000000000000       0.000000000000  xy xz yz
 
Masses
 
            1   140.11600000            # Ce
            2   15.99900000             # O
 
Atoms # charge
 
         1         1   4.0        4.0       0.000000000000       0.000000000000
         2         1   4.0        4.0       5.799112500000       3.348119162936
         3         1   4.0        4.0       3.866075000000       0.000000000000
         4         1   4.0        4.0       1.933037500000       3.348119162936
         5         2   -2.0        -2.0       7.732150000000       0.000000000000
         6         2   -2.0        -2.0       7.732072678500       4.464114242326
         7         2   -2.0        -2.0       5.799035178500       1.115995079390
         8         2   -2.0        -2.0       9.665187500000       3.348119162936
         9         2   -2.0        -2.0       5.799112500000       3.348119162936
         10         2   -2.0        -2.0       1.932960178500       1.115995079390
         11         2   -2.0        -2.0       3.865997678500       4.464114242326
         12         2   -2.0        -2.0       3.866075000000       0.000000000000
         13         1   4.0        4.0       7.732072678500       4.464114242326
         14         1   4.0        4.0       1.932960178500       1.115995079390
         15         1   4.0        4.0       3.865997678500       4.464114242326
         16         1   4.0        4.0       5.799035178500       1.115995079390
         17         2   -2.0        -2.0       7.732072678500       4.464114242326
         18         2   -2.0        -2.0       3.866152321500       2.232124083546
         19         2   -2.0        -2.0       5.799189821500       5.580243246482
         20         2   -2.0        -2.0       5.799035178500       1.115995079390
         21         2   -2.0        -2.0       1.932960178500       1.115995079390
         22         2   -2.0        -2.0       9.665264821500       5.580243246482
         23         2   -2.0        -2.0       7.732227321500       2.232124083546
         24         2   -2.0        -2.0       3.865997678500       4.464114242326
         25         1   4.0        4.0       3.866152321500       2.232124083546
         26         1   4.0        4.0       9.665264821500       5.580243246482
         27         1   4.0        4.0       7.732227321500       2.232124083546
         28         1   4.0        4.0       5.799189821500       5.580243246482
         29         2   -2.0        -2.0       3.866152321500       2.232124083546
         30         2   -2.0        -2.0       15.464300000000       13.392476651744
         31         2   -2.0        -2.0       9.665187500000       3.348119162936
         32         2   -2.0        -2.0       5.799189821500       5.580243246482
         33         2   -2.0        -2.0       9.665264821500       5.580243246482
         34         2   -2.0        -2.0       5.799112500000       3.348119162936
         35         2   -2.0        -2.0       11.598225000000       13.392476651744
         36         2   -2.0        -2.0       7.732227321500       2.232124083546
         37         1   4.0        4.0       7.732150000000       0.000000000000
         38         1   4.0        4.0       5.799112500000       3.348119162936
         39         1   4.0        4.0       3.866075000000       0.000000000000
         40         1   4.0        4.0       9.665187500000       3.348119162936
         41         2   -2.0        -2.0       7.732150000000       0.000000000000
         42         2   -2.0        -2.0       7.732072678500       4.464114242326
         43         2   -2.0        -2.0       5.799035178500       1.115995079390
         44         2   -2.0        -2.0       9.665187500000       3.348119162936
         45         2   -2.0        -2.0       5.799112500000       3.348119162936
         46         2   -2.0        -2.0       1.932960178500       1.115995079390
         47         2   -2.0        -2.0       3.865997678500       4.464114242326
         48         2   -2.0        -2.0       3.866075000000       0.000000000000
         49         1   4.0        4.0       7.732072678500       4.464114242326
         50         1   4.0        4.0       1.932960178500       1.115995079390
         51         1   4.0        4.0       3.865997678500       4.464114242326
         52         1   4.0        4.0       5.799035178500       1.115995079390
         53         2   -2.0        -2.0       7.732072678500       4.464114242326
         54         2   -2.0        -2.0       3.866152321500       2.232124083546
         55         2   -2.0        -2.0       5.799189821500       5.580243246482
         56         2   -2.0        -2.0       5.799035178500       1.115995079390
         57         2   -2.0        -2.0       1.932960178500       1.115995079390
         58         2   -2.0        -2.0       9.665264821500       5.580243246482
         59         2   -2.0        -2.0       7.732227321500       2.232124083546
         60         2   -2.0        -2.0       3.865997678500       4.464114242326
         61         1   4.0        4.0       3.866152321500       2.232124083546
         62         1   4.0        4.0       9.665264821500       5.580243246482
         63         1   4.0        4.0       7.732227321500       2.232124083546
         64         1   4.0        4.0       5.799189821500       5.580243246482
         65         2   -2.0        -2.0       3.866152321500       2.232124083546
         66         2   -2.0        -2.0       15.464300000000       13.392476651744
         67         2   -2.0        -2.0       9.665187500000       3.348119162936
         68         2   -2.0        -2.0       5.799189821500       5.580243246482
         69         2   -2.0        -2.0       9.665264821500       5.580243246482
         70         2   -2.0        -2.0       5.799112500000       3.348119162936
         71         2   -2.0        -2.0       11.598225000000       13.392476651744
         72         2   -2.0        -2.0       7.732227321500       2.232124083546
         73         1   4.0        4.0       15.464300000000       13.392476651744
         74         1   4.0        4.0       5.799112500000       3.348119162936
         75         1   4.0        4.0       11.598225000000       13.392476651744
         76         1   4.0        4.0       9.665187500000       3.348119162936
         77         2   -2.0        -2.0       15.464300000000       13.392476651744
         78         2   -2.0        -2.0       7.732072678500       4.464114242326
         79         2   -2.0        -2.0       5.799035178500       1.115995079390
         80         2   -2.0        -2.0       9.665187500000       3.348119162936
         81         2   -2.0        -2.0       5.799112500000       3.348119162936
         82         2   -2.0        -2.0       1.932960178500       1.115995079390
         83         2   -2.0        -2.0       3.865997678500       4.464114242326
         84         2   -2.0        -2.0       11.598225000000       13.392476651744
         85         1   4.0        4.0       3.866075000000       6.696238325872
         86         1   4.0        4.0       9.665187500000       10.044357488808
         87         1   4.0        4.0       7.732150000000       6.696238325872
         88         1   4.0        4.0       5.799112500000       10.044357488808
         89         2   -2.0        -2.0       11.598225000000       6.696238325872
         90         2   -2.0        -2.0       11.598147678500       11.160352568198
         91         2   -2.0        -2.0       9.665110178500       7.812233405262
         92         2   -2.0        -2.0       13.531262500000       10.044357488808
         93         2   -2.0        -2.0       9.665187500000       10.044357488808
         94         2   -2.0        -2.0       5.799035178500       7.812233405262
         95         2   -2.0        -2.0       7.732072678500       11.160352568198
         96         2   -2.0        -2.0       7.732150000000       6.696238325872
         97         1   4.0        4.0       11.598147678500       11.160352568198
         98         1   4.0        4.0       5.799035178500       7.812233405262
         99         1   4.0        4.0       7.732072678500       11.160352568198
         100         1   4.0        4.0       9.665110178500       7.812233405262
         101         2   -2.0        -2.0       11.598147678500       11.160352568198
         102         2   -2.0        -2.0       7.732227321500       8.928362409418
         103         2   -2.0        -2.0       9.665264821500       12.276481572354
         104         2   -2.0        -2.0       9.665110178500       7.812233405262
         105         2   -2.0        -2.0       5.799035178500       7.812233405262
         106         2   -2.0        -2.0       13.531339821500       12.276481572354
         107         2   -2.0        -2.0       11.598302321500       8.928362409418
         108         2   -2.0        -2.0       7.732072678500       11.160352568198
         109         1   4.0        4.0       7.732227321500       8.928362409418
         110         1   4.0        4.0       13.531339821500       12.276481572354
         111         1   4.0        4.0       11.598302321500       8.928362409418
         112         1   4.0        4.0       9.665264821500       12.276481572354
         113         2   -2.0        -2.0       7.732227321500       8.928362409418
         114         2   -2.0        -2.0       11.598225000000       6.696238325872
         115         2   -2.0        -2.0       13.531262500000       10.044357488808
         116         2   -2.0        -2.0       9.665264821500       12.276481572354
         117         2   -2.0        -2.0       13.531339821500       12.276481572354
         118         2   -2.0        -2.0       9.665187500000       10.044357488808
         119         2   -2.0        -2.0       7.732150000000       6.696238325872
         120         2   -2.0        -2.0       11.598302321500       8.928362409418
         121         1   4.0        4.0       11.598225000000       6.696238325872
         122         1   4.0        4.0       9.665187500000       10.044357488808
         123         1   4.0        4.0       7.732150000000       6.696238325872
         124         1   4.0        4.0       13.531262500000       10.044357488808
         125         2   -2.0        -2.0       11.598225000000       6.696238325872
         126         2   -2.0        -2.0       11.598147678500       11.160352568198
         127         2   -2.0        -2.0       9.665110178500       7.812233405262
         128         2   -2.0        -2.0       13.531262500000       10.044357488808
         129         2   -2.0        -2.0       9.665187500000       10.044357488808
         130         2   -2.0        -2.0       5.799035178500       7.812233405262
         131         2   -2.0        -2.0       7.732072678500       11.160352568198
         132         2   -2.0        -2.0       7.732150000000       6.696238325872
         133         1   4.0        4.0       11.598147678500       11.160352568198
         134         1   4.0        4.0       5.799035178500       7.812233405262
         135         1   4.0        4.0       7.732072678500       11.160352568198
         136         1   4.0        4.0       9.665110178500       7.812233405262
         137         2   -2.0        -2.0       11.598147678500       11.160352568198
         138         2   -2.0        -2.0       7.732227321500       8.928362409418
         139         2   -2.0        -2.0       9.665264821500       12.276481572354
         140         2   -2.0        -2.0       9.665110178500       7.812233405262
         141         2   -2.0        -2.0       5.799035178500       7.812233405262
         142         2   -2.0        -2.0       13.531339821500       12.276481572354
         143         2   -2.0        -2.0       11.598302321500       8.928362409418
         144         2   -2.0        -2.0       7.732072678500       11.160352568198
         145         1   4.0        4.0       7.732227321500       8.928362409418
         146         1   4.0        4.0       13.531339821500       12.276481572354
         147         1   4.0        4.0       11.598302321500       8.928362409418
         148         1   4.0        4.0       9.665264821500       12.276481572354
         149         2   -2.0        -2.0       7.732227321500       8.928362409418
         150         2   -2.0        -2.0       11.598225000000       6.696238325872
         151         2   -2.0        -2.0       13.531262500000       10.044357488808
         152         2   -2.0        -2.0       9.665264821500       12.276481572354
         153         2   -2.0        -2.0       13.531339821500       12.276481572354
         154         2   -2.0        -2.0       9.665187500000       10.044357488808
         155         2   -2.0        -2.0       7.732150000000       6.696238325872
         156         2   -2.0        -2.0       11.598302321500       8.928362409418
         157         1   4.0        4.0       11.598225000000       6.696238325872
         158         1   4.0        4.0       9.665187500000       10.044357488808
         159         1   4.0        4.0       7.732150000000       6.696238325872
         160         1   4.0        4.0       13.531262500000       10.044357488808
         161         2   -2.0        -2.0       11.598225000000       6.696238325872
         162         2   -2.0        -2.0       11.598147678500       11.160352568198
         163         2   -2.0        -2.0       9.665110178500       7.812233405262
         164         2   -2.0        -2.0       13.531262500000       10.044357488808
         165         2   -2.0        -2.0       9.665187500000       10.044357488808
         166         2   -2.0        -2.0       5.799035178500       7.812233405262
         167         2   -2.0        -2.0       7.732072678500       11.160352568198
         168         2   -2.0        -2.0       7.732150000000       6.696238325872
         169         1   4.0        4.0       7.732150000000       0.000000000000
         170         1   4.0        4.0       13.531262500000       3.348119162936
         171         1   4.0        4.0       11.598225000000       0.000000000000
         172         1   4.0        4.0       9.665187500000       3.348119162936
         173         2   -2.0        -2.0       0.000000000000       0.000000000000
         174         2   -2.0        -2.0       15.464222678500       4.464114242326
         175         2   -2.0        -2.0       13.531185178500       1.115995079390
         176         2   -2.0        -2.0       1.933037500000       3.348119162936
         177         2   -2.0        -2.0       13.531262500000       3.348119162936
         178         2   -2.0        -2.0       9.665110178500       1.115995079390
         179         2   -2.0        -2.0       11.598147678500       4.464114242326
         180         2   -2.0        -2.0       11.598225000000       0.000000000000
         181         1   4.0        4.0       15.464222678500       4.464114242326
         182         1   4.0        4.0       9.665110178500       1.115995079390
         183         1   4.0        4.0       11.598147678500       4.464114242326
         184         1   4.0        4.0       13.531185178500       1.115995079390
         185         2   -2.0        -2.0       15.464222678500       4.464114242326
         186         2   -2.0        -2.0       11.598302321500       2.232124083546
         187         2   -2.0        -2.0       13.531339821500       5.580243246482
         188         2   -2.0        -2.0       13.531185178500       1.115995079390
         189         2   -2.0        -2.0       9.665110178500       1.115995079390
         190         2   -2.0        -2.0       17.397414821500       5.580243246482
         191         2   -2.0        -2.0       15.464377321500       2.232124083546
         192         2   -2.0        -2.0       11.598147678500       4.464114242326
         193         1   4.0        4.0       11.598302321500       2.232124083546
         194         1   4.0        4.0       17.397414821500       5.580243246482
         195         1   4.0        4.0       15.464377321500       2.232124083546
         196         1   4.0        4.0       13.531339821500       5.580243246482
         197         2   -2.0        -2.0       11.598302321500       2.232124083546
         198         2   -2.0        -2.0       7.732150000000       13.392476651744
         199         2   -2.0        -2.0       17.397337500000       3.348119162936
         200         2   -2.0        -2.0       13.531339821500       5.580243246482
         201         2   -2.0        -2.0       17.397414821500       5.580243246482
         202         2   -2.0        -2.0       13.531262500000       3.348119162936
         203         2   -2.0        -2.0       19.330375000000       13.392476651744
         204         2   -2.0        -2.0       15.464377321500       2.232124083546
         205         1   4.0        4.0       15.464300000000       0.000000000000
         206         1   4.0        4.0       13.531262500000       3.348119162936
         207         1   4.0        4.0       11.598225000000       0.000000000000
         208         1   4.0        4.0       17.397337500000       3.348119162936
         209         2   -2.0        -2.0       15.464300000000       0.000000000000
         210         2   -2.0        -2.0       15.464222678500       4.464114242326
         211         2   -2.0        -2.0       13.531185178500       1.115995079390
         212         2   -2.0        -2.0       1.933037500000       3.348119162936
         213         2   -2.0        -2.0       13.531262500000       3.348119162936
         214         2   -2.0        -2.0       9.665110178500       1.115995079390
         215         2   -2.0        -2.0       11.598147678500       4.464114242326
         216         2   -2.0        -2.0       11.598225000000       0.000000000000
         217         1   4.0        4.0       15.464222678500       4.464114242326
         218         1   4.0        4.0       9.665110178500       1.115995079390
         219         1   4.0        4.0       11.598147678500       4.464114242326
         220         1   4.0        4.0       13.531185178500       1.115995079390
         221         2   -2.0        -2.0       15.464222678500       4.464114242326
         222         2   -2.0        -2.0       11.598302321500       2.232124083546
         223         2   -2.0        -2.0       13.531339821500       5.580243246482
         224         2   -2.0        -2.0       13.531185178500       1.115995079390
         225         2   -2.0        -2.0       9.665110178500       1.115995079390
         226         2   -2.0        -2.0       17.397414821500       5.580243246482
         227         2   -2.0        -2.0       15.464377321500       2.232124083546
         228         2   -2.0        -2.0       11.598147678500       4.464114242326
         229         1   4.0        4.0       11.598302321500       2.232124083546
         230         1   4.0        4.0       17.397414821500       5.580243246482
         231         1   4.0        4.0       15.464377321500       2.232124083546
         232         1   4.0        4.0       13.531339821500       5.580243246482
         233         2   -2.0        -2.0       11.598302321500       2.232124083546
         234         2   -2.0        -2.0       7.732150000000       13.392476651744
         235         2   -2.0        -2.0       1.933037500000       3.348119162936
         236         2   -2.0        -2.0       13.531339821500       5.580243246482
         237         2   -2.0        -2.0       17.397414821500       5.580243246482
         238         2   -2.0        -2.0       13.531262500000       3.348119162936
         239         2   -2.0        -2.0       19.330375000000       13.392476651744
         240         2   -2.0        -2.0       15.464377321500       2.232124083546
         241         1   4.0        4.0       7.732150000000       13.392476651744
         242         1   4.0        4.0       13.531262500000       3.348119162936
         243         1   4.0        4.0       19.330375000000       13.392476651744
         244         1   4.0        4.0       1.933037500000       3.348119162936
         245         2   -2.0        -2.0       7.732150000000       13.392476651744
         246         2   -2.0        -2.0       15.464222678500       4.464114242326
         247         2   -2.0        -2.0       13.531185178500       1.115995079390
         248         2   -2.0        -2.0       1.933037500000       3.348119162936
         249         2   -2.0        -2.0       13.531262500000       3.348119162936
         250         2   -2.0        -2.0       9.665110178500       1.115995079390
         251         2   -2.0        -2.0       11.598147678500       4.464114242326
         252         2   -2.0        -2.0       19.330375000000       13.392476651744
         253         1   4.0        4.0       11.598225000000       6.696238325872
         254         1   4.0        4.0       17.397337500000       10.044357488808
         255         1   4.0        4.0       15.464300000000       6.696238325872
         256         1   4.0        4.0       13.531262500000       10.044357488808
         257         2   -2.0        -2.0       3.866075000000       6.696238325872
         258         2   -2.0        -2.0       19.330297678500       11.160352568198
         259         2   -2.0        -2.0       17.397260178500       7.812233405262
         260         2   -2.0        -2.0       5.799112500000       10.044357488808
         261         2   -2.0        -2.0       17.397337500000       10.044357488808
         262         2   -2.0        -2.0       13.531185178500       7.812233405262
         263         2   -2.0        -2.0       15.464222678500       11.160352568198
         264         2   -2.0        -2.0       15.464300000000       6.696238325872
         265         1   4.0        4.0       19.330297678500       11.160352568198
         266         1   4.0        4.0       13.531185178500       7.812233405262
         267         1   4.0        4.0       15.464222678500       11.160352568198
         268         1   4.0        4.0       17.397260178500       7.812233405262
         269         2   -2.0        -2.0       19.330297678500       11.160352568198
         270         2   -2.0        -2.0       15.464377321500       8.928362409418
         271         2   -2.0        -2.0       17.397414821500       12.276481572354
         272         2   -2.0        -2.0       17.397260178500       7.812233405262
         273         2   -2.0        -2.0       13.531185178500       7.812233405262
         274         2   -2.0        -2.0       21.263489821500       12.276481572354
         275         2   -2.0        -2.0       19.330452321500       8.928362409418
         276         2   -2.0        -2.0       15.464222678500       11.160352568198
         277         1   4.0        4.0       15.464377321500       8.928362409418
         278         1   4.0        4.0       21.263489821500       12.276481572354
         279         1   4.0        4.0       19.330452321500       8.928362409418
         280         1   4.0        4.0       17.397414821500       12.276481572354
         281         2   -2.0        -2.0       15.464377321500       8.928362409418
         282         2   -2.0        -2.0       19.330375000000       6.696238325872
         283         2   -2.0        -2.0       5.799112500000       10.044357488808
         284         2   -2.0        -2.0       17.397414821500       12.276481572354
         285         2   -2.0        -2.0       21.263489821500       12.276481572354
         286         2   -2.0        -2.0       17.397337500000       10.044357488808
         287         2   -2.0        -2.0       15.464300000000       6.696238325872
         288         2   -2.0        -2.0       19.330452321500       8.928362409418
         289         1   4.0        4.0       19.330375000000       6.696238325872
         290         1   4.0        4.0       17.397337500000       10.044357488808
         291         1   4.0        4.0       15.464300000000       6.696238325872
         292         1   4.0        4.0       5.799112500000       10.044357488808
         293         2   -2.0        -2.0       19.330375000000       6.696238325872
         294         2   -2.0        -2.0       19.330297678500       11.160352568198
         295         2   -2.0        -2.0       17.397260178500       7.812233405262
         296         2   -2.0        -2.0       5.799112500000       10.044357488808
         297         2   -2.0        -2.0       17.397337500000       10.044357488808
         298         2   -2.0        -2.0       13.531185178500       7.812233405262
         299         2   -2.0        -2.0       15.464222678500       11.160352568198
         300         2   -2.0        -2.0       15.464300000000       6.696238325872
         301         1   4.0        4.0       19.330297678500       11.160352568198
         302         1   4.0        4.0       13.531185178500       7.812233405262
         303         1   4.0        4.0       15.464222678500       11.160352568198
         304         1   4.0        4.0       17.397260178500       7.812233405262
         305         2   -2.0        -2.0       19.330297678500       11.160352568198
         306         2   -2.0        -2.0       15.464377321500       8.928362409418
         307         2   -2.0        -2.0       17.397414821500       12.276481572354
         308         2   -2.0        -2.0       17.397260178500       7.812233405262
         309         2   -2.0        -2.0       13.531185178500       7.812233405262
         310         2   -2.0        -2.0       21.263489821500       12.276481572354
         311         2   -2.0        -2.0       19.330452321500       8.928362409418
         312         2   -2.0        -2.0       15.464222678500       11.160352568198
         313         1   4.0        4.0       15.464377321500       8.928362409418
         314         1   4.0        4.0       21.263489821500       12.276481572354
         315         1   4.0        4.0       19.330452321500       8.928362409418
         316         1   4.0        4.0       17.397414821500       12.276481572354
         317         2   -2.0        -2.0       15.464377321500       8.928362409418
         318         2   -2.0        -2.0       19.330375000000       6.696238325872
         319         2   -2.0        -2.0       21.263412500000       10.044357488808
         320         2   -2.0        -2.0       17.397414821500       12.276481572354
         321         2   -2.0        -2.0       21.263489821500       12.276481572354
         322         2   -2.0        -2.0       17.397337500000       10.044357488808
         323         2   -2.0        -2.0       15.464300000000       6.696238325872
         324         2   -2.0        -2.0       19.330452321500       8.928362409418
         325         1   4.0        4.0       19.330375000000       6.696238325872
         326         1   4.0        4.0       17.397337500000       10.044357488808
         327         1   4.0        4.0       15.464300000000       6.696238325872
         328         1   4.0        4.0       21.263412500000       10.044357488808
         329         2   -2.0        -2.0       19.330375000000       6.696238325872
         330         2   -2.0        -2.0       19.330297678500       11.160352568198
         331         2   -2.0        -2.0       17.397260178500       7.812233405262
         332         2   -2.0        -2.0       21.263412500000       10.044357488808
         333         2   -2.0        -2.0       17.397337500000       10.044357488808
         334         2   -2.0        -2.0       13.531185178500       7.812233405262
         335         2   -2.0        -2.0       15.464222678500       11.160352568198
         336         2   -2.0        -2.0       15.464300000000       6.696238325872
