 # "Ce112 O224"
  
         336  atoms
           2  atom types
 
      0.000000000000      15.464300000000  xlo xhi
      0.000000000000      13.392476651744  ylo yhi
      0.000000000000     261.307000000000  zlo zhi
      7.732150000000       0.000000000000       0.000000000000  xy xz yz
 
Masses
 
            1   140.11600000            # Ce
            2   15.99900000             # O
 
Atoms # atomic
 
         1         1   4.0        0.000000000000       0.000000000000       120.000013610000
         2         1   4.0        5.799112500000       3.348119162936       120.000013610000
         3         1   4.0        3.866075000000       0.000000000000       120.000013610000
         4         1   4.0        17.397337500000       3.348119162936       120.000013610000
         5         2   -2.0        15.464300000000       13.392476651744       122.367455030000
         6         2   -2.0        7.732072678500       4.464114242326       120.789160750000
         7         2   -2.0        5.799035178500       1.115995079390       120.789160750000
         8         2   -2.0        9.665187500000       3.348119162936       122.367455030000
         9         2   -2.0        5.799112500000       3.348119162936       122.367455030000
         10         2   -2.0        1.932960178500       1.115995079390       120.789160750000
         11         2   -2.0        3.865997678500       4.464114242326       120.789160750000
         12         2   -2.0        11.598225000000       13.392476651744       122.367455030000
         13         1   4.0        7.732072678500       4.464114242326       123.156602170000
         14         1   4.0        1.932960178500       1.115995079390       123.156602170000
         15         1   4.0        3.865997678500       4.464114242326       123.156602170000
         16         1   4.0        5.799035178500       1.115995079390       123.156602170000
         17         2   -2.0        7.732072678500       4.464114242326       125.524043590000
         18         2   -2.0        3.866152321500       2.232124083546       123.945749310000
         19         2   -2.0        5.799189821500       5.580243246482       123.945749310000
         20         2   -2.0        5.799035178500       1.115995079390       125.524043590000
         21         2   -2.0        1.932960178500       1.115995079390       125.524043590000
         22         2   -2.0        9.665264821500       5.580243246482       123.945749310000
         23         2   -2.0        7.732227321500       2.232124083546       123.945749310000
         24         2   -2.0        3.865997678500       4.464114242326       125.524043590000
         25         1   4.0        3.866152321500       2.232124083546       126.313190730000
         26         1   4.0        9.665264821500       5.580243246482       126.313190730000
         27         1   4.0        7.732227321500       2.232124083546       126.313190730000
         28         1   4.0        5.799189821500       5.580243246482       126.313190730000
         29         2   -2.0        3.866152321500       2.232124083546       128.680632150000
         30         2   -2.0        15.464300000000       13.392476651744       127.102337870000
         31         2   -2.0        9.665187500000       3.348119162936       127.102337870000
         32         2   -2.0        5.799189821500       5.580243246482       128.680632150000
         33         2   -2.0        9.665264821500       5.580243246482       128.680632150000
         34         2   -2.0        5.799112500000       3.348119162936       127.102337870000
         35         2   -2.0        11.598225000000       13.392476651744       127.102337870000
         36         2   -2.0        7.732227321500       2.232124083546       128.680632150000
         37         1   4.0        15.464300000000       13.392476651744       129.469779290000
         38         1   4.0        5.799112500000       3.348119162936       129.469779290000
         39         1   4.0        11.598225000000       13.392476651744       129.469779290000
         40         1   4.0        9.665187500000       3.348119162936       129.469779290000
         41         2   -2.0        15.464300000000       13.392476651744       131.837220710000
         42         2   -2.0        7.732072678500       4.464114242326       130.258926430000
         43         2   -2.0        5.799035178500       1.115995079390       130.258926430000
         44         2   -2.0        9.665187500000       3.348119162936       131.837220710000
         45         2   -2.0        5.799112500000       3.348119162936       131.837220710000
         46         2   -2.0        1.932960178500       1.115995079390       130.258926430000
         47         2   -2.0        3.865997678500       4.464114242326       130.258926430000
         48         2   -2.0        11.598225000000       13.392476651744       131.837220710000
         49         1   4.0        7.732072678500       4.464114242326       132.626367850000
         50         1   4.0        1.932960178500       1.115995079390       132.626367850000
         51         1   4.0        3.865997678500       4.464114242326       132.626367850000
         52         1   4.0        5.799035178500       1.115995079390       132.626367850000
         53         2   -2.0        7.732072678500       4.464114242326       134.993809270000
         54         2   -2.0        3.866152321500       2.232124083546       133.415514990000
         55         2   -2.0        5.799189821500       5.580243246482       133.415514990000
         56         2   -2.0        5.799035178500       1.115995079390       134.993809270000
         57         2   -2.0        1.932960178500       1.115995079390       134.993809270000
         58         2   -2.0        9.665264821500       5.580243246482       133.415514990000
         59         2   -2.0        7.732227321500       2.232124083546       133.415514990000
         60         2   -2.0        3.865997678500       4.464114242326       134.993809270000
         61         1   4.0        3.866152321500       2.232124083546       135.782956410000
         62         1   4.0        9.665264821500       5.580243246482       135.782956410000
         63         1   4.0        7.732227321500       2.232124083546       135.782956410000
         64         1   4.0        5.799189821500       5.580243246482       135.782956410000
         65         2   -2.0        3.866152321500       2.232124083546       138.150397830000
         66         2   -2.0        15.464300000000       13.392476651744       136.572103550000
         67         2   -2.0        9.665187500000       3.348119162936       136.572103550000
         68         2   -2.0        5.799189821500       5.580243246482       138.150397830000
         69         2   -2.0        9.665264821500       5.580243246482       138.150397830000
         70         2   -2.0        5.799112500000       3.348119162936       136.572103550000
         71         2   -2.0        11.598225000000       13.392476651744       136.572103550000
         72         2   -2.0        7.732227321500       2.232124083546       138.150397830000
         73         1   4.0        15.464300000000       13.392476651744       138.939544970000
         74         1   4.0        5.799112500000       3.348119162936       138.939544970000
         75         1   4.0        11.598225000000       13.392476651744       138.939544970000
         76         1   4.0        9.665187500000       3.348119162936       138.939544970000
         77         2   -2.0        15.464300000000       13.392476651744       141.306986390000
         78         2   -2.0        7.732072678500       4.464114242326       139.728692110000
         79         2   -2.0        5.799035178500       1.115995079390       139.728692110000
         80         2   -2.0        9.665187500000       3.348119162936       141.306986390000
         81         2   -2.0        5.799112500000       3.348119162936       141.306986390000
         82         2   -2.0        1.932960178500       1.115995079390       139.728692110000
         83         2   -2.0        3.865997678500       4.464114242326       139.728692110000
         84         2   -2.0        11.598225000000       13.392476651744       141.306986390000
         85         1   4.0        3.866075000000       6.696238325872       120.000013610000
         86         1   4.0        9.665187500000       10.044357488808       120.000013610000
         87         1   4.0        7.732150000000       6.696238325872       120.000013610000
         88         1   4.0        5.799112500000       10.044357488808       120.000013610000
         89         2   -2.0        11.598225000000       6.696238325872       122.367455030000
         90         2   -2.0        11.598147678500       11.160352568198       120.789160750000
         91         2   -2.0        9.665110178500       7.812233405262       120.789160750000
         92         2   -2.0        13.531262500000       10.044357488808       122.367455030000
         93         2   -2.0        9.665187500000       10.044357488808       122.367455030000
         94         2   -2.0        5.799035178500       7.812233405262       120.789160750000
         95         2   -2.0        7.732072678500       11.160352568198       120.789160750000
         96         2   -2.0        7.732150000000       6.696238325872       122.367455030000
         97         1   4.0        11.598147678500       11.160352568198       123.156602170000
         98         1   4.0        5.799035178500       7.812233405262       123.156602170000
         99         1   4.0        7.732072678500       11.160352568198       123.156602170000
         100         1   4.0        9.665110178500       7.812233405262       123.156602170000
         101         2   -2.0        11.598147678500       11.160352568198       125.524043590000
         102         2   -2.0        7.732227321500       8.928362409418       123.945749310000
         103         2   -2.0        9.665264821500       12.276481572354       123.945749310000
         104         2   -2.0        9.665110178500       7.812233405262       125.524043590000
         105         2   -2.0        5.799035178500       7.812233405262       125.524043590000
         106         2   -2.0        13.531339821500       12.276481572354       123.945749310000
         107         2   -2.0        11.598302321500       8.928362409418       123.945749310000
         108         2   -2.0        7.732072678500       11.160352568198       125.524043590000
         109         1   4.0        7.732227321500       8.928362409418       126.313190730000
         110         1   4.0        13.531339821500       12.276481572354       126.313190730000
         111         1   4.0        11.598302321500       8.928362409418       126.313190730000
         112         1   4.0        9.665264821500       12.276481572354       126.313190730000
         113         2   -2.0        7.732227321500       8.928362409418       128.680632150000
         114         2   -2.0        11.598225000000       6.696238325872       127.102337870000
         115         2   -2.0        13.531262500000       10.044357488808       127.102337870000
         116         2   -2.0        9.665264821500       12.276481572354       128.680632150000
         117         2   -2.0        13.531339821500       12.276481572354       128.680632150000
         118         2   -2.0        9.665187500000       10.044357488808       127.102337870000
         119         2   -2.0        7.732150000000       6.696238325872       127.102337870000
         120         2   -2.0        11.598302321500       8.928362409418       128.680632150000
         121         1   4.0        11.598225000000       6.696238325872       129.469779290000
         122         1   4.0        9.665187500000       10.044357488808       129.469779290000
         123         1   4.0        7.732150000000       6.696238325872       129.469779290000
         124         1   4.0        13.531262500000       10.044357488808       129.469779290000
         125         2   -2.0        11.598225000000       6.696238325872       201.837220710000
         126         2   -2.0        11.598147678500       11.160352568198       130.258926430000
         127         2   -2.0        9.665110178500       7.812233405262       130.258926430000
         128         2   -2.0        13.531262500000       10.044357488808       131.837220710000
         129         2   -2.0        9.665187500000       10.044357488808       131.837220710000
         130         2   -2.0        5.799035178500       7.812233405262       130.258926430000
         131         2   -2.0        7.732072678500       11.160352568198       130.258926430000
         132         2   -2.0        7.732150000000       6.696238325872       131.837220710000
         133         1   4.0        11.598147678500       11.160352568198       132.626367850000
         134         1   4.0        5.799035178500       7.812233405262       132.626367850000
         135         1   4.0        7.732072678500       11.160352568198       132.626367850000
         136         1   4.0        9.665110178500       7.812233405262       132.626367850000
         137         2   -2.0        11.598147678500       11.160352568198       134.993809270000
         138         2   -2.0        7.732227321500       8.928362409418       133.415514990000
         139         2   -2.0        9.665264821500       12.276481572354       133.415514990000
         140         2   -2.0        9.665110178500       7.812233405262       134.993809270000
         141         2   -2.0        5.799035178500       7.812233405262       134.993809270000
         142         2   -2.0        13.531339821500       12.276481572354       133.415514990000
         143         2   -2.0        11.598302321500       8.928362409418       133.415514990000
         144         2   -2.0        7.732072678500       11.160352568198       134.993809270000
         145         1   4.0        7.732227321500       8.928362409418       135.782956410000
         146         1   4.0        13.531339821500       12.276481572354       135.782956410000
         147         1   4.0        11.598302321500       8.928362409418       135.782956410000
         148         1   4.0        9.665264821500       12.276481572354       135.782956410000
         149         2   -2.0        7.732227321500       8.928362409418       138.150397830000
         150         2   -2.0        11.598225000000       6.696238325872       136.572103550000
         151         2   -2.0        13.531262500000       10.044357488808       136.572103550000
         152         2   -2.0        9.665264821500       12.276481572354       138.150397830000
         153         2   -2.0        13.531339821500       12.276481572354       138.150397830000
         154         2   -2.0        9.665187500000       10.044357488808       136.572103550000
         155         2   -2.0        7.732150000000       6.696238325872       136.572103550000
         156         2   -2.0        11.598302321500       8.928362409418       138.150397830000
         157         1   4.0        11.598225000000       6.696238325872       138.939544970000
         158         1   4.0        9.665187500000       10.044357488808       138.939544970000
         159         1   4.0        7.732150000000       6.696238325872       138.939544970000
         160         1   4.0        13.531262500000       10.044357488808       138.939544970000
         161         2   -2.0        11.598225000000       6.696238325872       141.306986390000
         162         2   -2.0        11.598147678500       11.160352568198       139.728692110000
         163         2   -2.0        9.665110178500       7.812233405262       139.728692110000
         164         2   -2.0        13.531262500000       10.044357488808       141.306986390000
         165         2   -2.0        9.665187500000       10.044357488808       141.306986390000
         166         2   -2.0        5.799035178500       7.812233405262       139.728692110000
         167         2   -2.0        7.732072678500       11.160352568198       139.728692110000
         168         2   -2.0        7.732150000000       6.696238325872       141.306986390000
         169         1   4.0        7.732150000000       0.000000000000       120.000013610000
         170         1   4.0        13.531262500000       3.348119162936       120.000013610000
         171         1   4.0        11.598225000000       0.000000000000       120.000013610000
         172         1   4.0        9.665187500000       3.348119162936       120.000013610000
         173         2   -2.0        7.732150000000       13.392476651744       122.367455030000
         174         2   -2.0        15.464222678500       4.464114242326       120.789160750000
         175         2   -2.0        13.531185178500       1.115995079390       120.789160750000
         176         2   -2.0        1.933037500000       3.348119162936       122.367455030000
         177         2   -2.0        13.531262500000       3.348119162936       122.367455030000
         178         2   -2.0        9.665110178500       1.115995079390       120.789160750000
         179         2   -2.0        11.598147678500       4.464114242326       120.789160750000
         180         2   -2.0        19.330375000000       13.392476651744       122.367455030000
         181         1   4.0        15.464222678500       4.464114242326       123.156602170000
         182         1   4.0        9.665110178500       1.115995079390       123.156602170000
         183         1   4.0        11.598147678500       4.464114242326       123.156602170000
         184         1   4.0        13.531185178500       1.115995079390       123.156602170000
         185         2   -2.0        15.464222678500       4.464114242326       125.524043590000
         186         2   -2.0        11.598302321500       2.232124083546       123.945749310000
         187         2   -2.0        13.531339821500       5.580243246482       123.945749310000
         188         2   -2.0        13.531185178500       1.115995079390       125.524043590000
         189         2   -2.0        9.665110178500       1.115995079390       125.524043590000
         190         2   -2.0        17.397414821500       5.580243246482       123.945749310000
         191         2   -2.0        15.464377321500       2.232124083546       123.945749310000
         192         2   -2.0        11.598147678500       4.464114242326       125.524043590000
         193         1   4.0        11.598302321500       2.232124083546       126.313190730000
         194         1   4.0        17.397414821500       5.580243246482       126.313190730000
         195         1   4.0        15.464377321500       2.232124083546       126.313190730000
         196         1   4.0        13.531339821500       5.580243246482       126.313190730000
         197         2   -2.0        11.598302321500       2.232124083546       128.680632150000
         198         2   -2.0        23.196450000000       13.392476651744       127.102337870000
         199         2   -2.0        1.933037500000       3.348119162936       127.102337870000
         200         2   -2.0        13.531339821500       5.580243246482       128.680632150000
         201         2   -2.0        17.397414821500       5.580243246482       128.680632150000
         202         2   -2.0        13.531262500000       3.348119162936       127.102337870000
         203         2   -2.0        19.330375000000       13.392476651744       127.102337870000
         204         2   -2.0        15.464377321500       2.232124083546       128.680632150000
         205         1   4.0        23.196450000000       13.392476651744       129.469779290000
         206         1   4.0        13.531262500000       3.348119162936       129.469779290000
         207         1   4.0        19.330375000000       13.392476651744       129.469779290000
         208         1   4.0        1.933037500000       3.348119162936       129.469779290000
         209         2   -2.0        7.732150000000       13.392476651744       131.837220710000
         210         2   -2.0        15.464222678500       4.464114242326       130.258926430000
         211         2   -2.0        13.531185178500       1.115995079390       130.258926430000
         212         2   -2.0        1.933037500000       3.348119162936       131.837220710000
         213         2   -2.0        13.531262500000       3.348119162936       131.837220710000
         214         2   -2.0        9.665110178500       1.115995079390       130.258926430000
         215         2   -2.0        11.598147678500       4.464114242326       130.258926430000
         216         2   -2.0        19.330375000000       13.392476651744       131.837220710000
         217         1   4.0        15.464222678500       4.464114242326       132.626367850000
         218         1   4.0        9.665110178500       1.115995079390       132.626367850000
         219         1   4.0        11.598147678500       4.464114242326       132.626367850000
         220         1   4.0        13.531185178500       1.115995079390       132.626367850000
         221         2   -2.0        15.464222678500       4.464114242326       134.993809270000
         222         2   -2.0        11.598302321500       2.232124083546       133.415514990000
         223         2   -2.0        13.531339821500       5.580243246482       133.415514990000
         224         2   -2.0        13.531185178500       1.115995079390       134.993809270000
         225         2   -2.0        9.665110178500       1.115995079390       134.993809270000
         226         2   -2.0        17.397414821500       5.580243246482       133.415514990000
         227         2   -2.0        15.464377321500       2.232124083546       133.415514990000
         228         2   -2.0        11.598147678500       4.464114242326       134.993809270000
         229         1   4.0        11.598302321500       2.232124083546       135.782956410000
         230         1   4.0        17.397414821500       5.580243246482       135.782956410000
         231         1   4.0        15.464377321500       2.232124083546       135.782956410000
         232         1   4.0        13.531339821500       5.580243246482       135.782956410000
         233         2   -2.0        11.598302321500       2.232124083546       138.150397830000
         234         2   -2.0        7.732150000000       13.392476651744       136.572103550000
         235         2   -2.0        1.933037500000       3.348119162936       136.572103550000
         236         2   -2.0        13.531339821500       5.580243246482       138.150397830000
         237         2   -2.0        17.397414821500       5.580243246482       138.150397830000
         238         2   -2.0        13.531262500000       3.348119162936       136.572103550000
         239         2   -2.0        19.330375000000       13.392476651744       136.572103550000
         240         2   -2.0        15.464377321500       2.232124083546       138.150397830000
         241         1   4.0        7.732150000000       13.392476651744       138.939544970000
         242         1   4.0        13.531262500000       3.348119162936       138.939544970000
         243         1   4.0        19.330375000000       13.392476651744       138.939544970000
         244         1   4.0        1.933037500000       3.348119162936       138.939544970000
         245         2   -2.0        7.732150000000       13.392476651744       141.306986390000
         246         2   -2.0        15.464222678500       4.464114242326       139.728692110000
         247         2   -2.0        13.531185178500       1.115995079390       139.728692110000
         248         2   -2.0        1.933037500000       3.348119162936       141.306986390000
         249         2   -2.0        13.531262500000       3.348119162936       141.306986390000
         250         2   -2.0        9.665110178500       1.115995079390       139.728692110000
         251         2   -2.0        11.598147678500       4.464114242326       139.728692110000
         252         2   -2.0        19.330375000000       13.392476651744       141.306986390000
         253         1   4.0        11.598225000000       6.696238325872       120.000013610000
         254         1   4.0        17.397337500000       10.044357488808       120.000013610000
         255         1   4.0        15.464300000000       6.696238325872       120.000013610000
         256         1   4.0        13.531262500000       10.044357488808       120.000013610000
         257         2   -2.0        19.330375000000       6.696238325872       122.367455030000
         258         2   -2.0        19.330297678500       11.160352568198       120.789160750000
         259         2   -2.0        17.397260178500       7.812233405262       120.789160750000
         260         2   -2.0        5.799112500000       10.044357488808       122.367455030000
         261         2   -2.0        17.397337500000       10.044357488808       122.367455030000
         262         2   -2.0        13.531185178500       7.812233405262       120.789160750000
         263         2   -2.0        15.464222678500       11.160352568198       120.789160750000
         264         2   -2.0        15.464300000000       6.696238325872       122.367455030000
         265         1   4.0        19.330297678500       11.160352568198       123.156602170000
         266         1   4.0        13.531185178500       7.812233405262       123.156602170000
         267         1   4.0        15.464222678500       11.160352568198       123.156602170000
         268         1   4.0        17.397260178500       7.812233405262       123.156602170000
         269         2   -2.0        19.330297678500       11.160352568198       125.524043590000
         270         2   -2.0        15.464377321500       8.928362409418       123.945749310000
         271         2   -2.0        17.397414821500       12.276481572354       123.945749310000
         272         2   -2.0        17.397260178500       7.812233405262       125.524043590000
         273         2   -2.0        13.531185178500       7.812233405262       125.524043590000
         274         2   -2.0        21.263489821500       12.276481572354       123.945749310000
         275         2   -2.0        19.330452321500       8.928362409418       123.945749310000
         276         2   -2.0        15.464222678500       11.160352568198       125.524043590000
         277         1   4.0        15.464377321500       8.928362409418       126.313190730000
         278         1   4.0        21.263489821500       12.276481572354       126.313190730000
         279         1   4.0        19.330452321500       8.928362409418       126.313190730000
         280         1   4.0        17.397414821500       12.276481572354       126.313190730000
         281         2   -2.0        15.464377321500       8.928362409418       128.680632150000
         282         2   -2.0        19.330375000000       6.696238325872       127.102337870000
         283         2   -2.0        5.799112500000       10.044357488808       127.102337870000
         284         2   -2.0        17.397414821500       12.276481572354       128.680632150000
         285         2   -2.0        21.263489821500       12.276481572354       128.680632150000
         286         2   -2.0        17.397337500000       10.044357488808       127.102337870000
         287         2   -2.0        15.464300000000       6.696238325872       127.102337870000
         288         2   -2.0        19.330452321500       8.928362409418       128.680632150000
         289         1   4.0        19.330375000000       6.696238325872       129.469779290000
         290         1   4.0        17.397337500000       10.044357488808       129.469779290000
         291         1   4.0        15.464300000000       6.696238325872       129.469779290000
         292         1   4.0        5.799112500000       10.044357488808       129.469779290000
         293         2   -2.0        19.330375000000       6.696238325872       131.837220710000
         294         2   -2.0        19.330297678500       11.160352568198       130.258926430000
         295         2   -2.0        17.397260178500       7.812233405262       130.258926430000
         296         2   -2.0        5.799112500000       10.044357488808       131.837220710000
         297         2   -2.0        17.397337500000       10.044357488808       131.837220710000
         298         2   -2.0        13.531185178500       7.812233405262       130.258926430000
         299         2   -2.0        15.464222678500       11.160352568198       130.258926430000
         300         2   -2.0        15.464300000000       6.696238325872       131.837220710000
         301         1   4.0        19.330297678500       11.160352568198       132.626367850000
         302         1   4.0        13.531185178500       7.812233405262       132.626367850000
         303         1   4.0        15.464222678500       11.160352568198       132.626367850000
         304         1   4.0        17.397260178500       7.812233405262       132.626367850000
         305         2   -2.0        19.330297678500       11.160352568198       134.993809270000
         306         2   -2.0        15.464377321500       8.928362409418       133.415514990000
         307         2   -2.0        17.397414821500       12.276481572354       133.415514990000