 # "Ce112 O224"
  
         336  atoms
           2  atom types
 
      0.000000000000      15.464300000000  xlo xhi
      0.000000000000      13.392476651744  ylo yhi
      0.000000000000      21.307300000000  zlo zhi
      7.732150000000       0.000000000000       0.000000000000  xy xz yz
 
Masses
 
            1   140.11600000            # Ce
            2   15.99900000             # O
 
Atoms # atomic
 
         1         1   4.0        0.000000000000       0.000000000000       0.000000000000
         2         1   4.0        5.799112500000       3.348119162936       0.000000000000
         3         1   4.0        3.866075000000       0.000000000000       0.000000000000
         4         1   4.0        1.933037500000       3.348119162936       0.000000000000
         5         2   -2.0        7.732150000000       0.000000000000       2.367454103000
         6         2   -2.0        7.732072678500       4.464114242326       0.789222392000
         7         2   -2.0        5.799035178500       1.115995079390       0.789222392000
         8         2   -2.0        9.665187500000       3.348119162936       2.367454103000
         9         2   -2.0        5.799112500000       3.348119162936       2.367454103000
         10         2   -2.0        1.932960178500       1.115995079390       0.789222392000
         11         2   -2.0        3.865997678500       4.464114242326       0.789222392000
         12         2   -2.0        3.866075000000       0.000000000000       2.367454103000
         13         1   4.0        7.732072678500       4.464114242326       3.156676495000
         14         1   4.0        1.932960178500       1.115995079390       3.156676495000
         15         1   4.0        3.865997678500       4.464114242326       3.156676495000
         16         1   4.0        5.799035178500       1.115995079390       3.156676495000
         17         2   -2.0        7.732072678500       4.464114242326       5.524130598000
         18         2   -2.0        3.866152321500       2.232124083546       3.945898887000
         19         2   -2.0        5.799189821500       5.580243246482       3.945898887000
         20         2   -2.0        5.799035178500       1.115995079390       5.524130598000
         21         2   -2.0        1.932960178500       1.115995079390       5.524130598000
         22         2   -2.0        9.665264821500       5.580243246482       3.945898887000
         23         2   -2.0        7.732227321500       2.232124083546       3.945898887000
         24         2   -2.0        3.865997678500       4.464114242326       5.524130598000
         25         1   4.0        3.866152321500       2.232124083546       6.313352990000
         26         1   4.0        9.665264821500       5.580243246482       6.313352990000
         27         1   4.0        7.732227321500       2.232124083546       6.313352990000
         28         1   4.0        5.799189821500       5.580243246482       6.313352990000
         29         2   -2.0        3.866152321500       2.232124083546       8.680807093000
         30         2   -2.0        15.464300000000       13.392476651744       7.102362309000
         31         2   -2.0        9.665187500000       3.348119162936       7.102362309000
         32         2   -2.0        5.799189821500       5.580243246482       8.680807093000
         33         2   -2.0        9.665264821500       5.580243246482       8.680807093000
         34         2   -2.0        5.799112500000       3.348119162936       7.102362309000
         35         2   -2.0        11.598225000000       13.392476651744       7.102362309000
         36         2   -2.0        7.732227321500       2.232124083546       8.680807093000
         37         1   4.0        7.732150000000       0.000000000000       9.469816412000
         38         1   4.0        5.799112500000       3.348119162936       9.469816412000
         39         1   4.0        3.866075000000       0.000000000000       9.469816412000
         40         1   4.0        9.665187500000       3.348119162936       9.469816412000
         41         2   -2.0        7.732150000000       0.000000000000       11.837483588000
         42         2   -2.0        7.732072678500       4.464114242326       10.259038804000
         43         2   -2.0        5.799035178500       1.115995079390       10.259038804000
         44         2   -2.0        9.665187500000       3.348119162936       11.837483588000
         45         2   -2.0        5.799112500000       3.348119162936       11.837483588000
         46         2   -2.0        1.932960178500       1.115995079390       10.259038804000
         47         2   -2.0        3.865997678500       4.464114242326       10.259038804000
         48         2   -2.0        3.866075000000       0.000000000000       11.837483588000
         49         1   4.0        7.732072678500       4.464114242326       12.626492907000
         50         1   4.0        1.932960178500       1.115995079390       12.626492907000
         51         1   4.0        3.865997678500       4.464114242326       12.626492907000
         52         1   4.0        5.799035178500       1.115995079390       12.626492907000
         53         2   -2.0        7.732072678500       4.464114242326       14.993947010000
         54         2   -2.0        3.866152321500       2.232124083546       13.415715299000
         55         2   -2.0        5.799189821500       5.580243246482       13.415715299000
         56         2   -2.0        5.799035178500       1.115995079390       14.993947010000
         57         2   -2.0        1.932960178500       1.115995079390       14.993947010000
         58         2   -2.0        9.665264821500       5.580243246482       13.415715299000
         59         2   -2.0        7.732227321500       2.232124083546       13.415715299000
         60         2   -2.0        3.865997678500       4.464114242326       14.993947010000
         61         1   4.0        3.866152321500       2.232124083546       15.783169402000
         62         1   4.0        9.665264821500       5.580243246482       15.783169402000
         63         1   4.0        7.732227321500       2.232124083546       15.783169402000
         64         1   4.0        5.799189821500       5.580243246482       15.783169402000
         65         2   -2.0        3.866152321500       2.232124083546       18.150623505000
         66         2   -2.0        15.464300000000       13.392476651744       16.572391794000
         67         2   -2.0        9.665187500000       3.348119162936       16.572391794000
         68         2   -2.0        5.799189821500       5.580243246482       18.150623505000
         69         2   -2.0        9.665264821500       5.580243246482       18.150623505000
         70         2   -2.0        5.799112500000       3.348119162936       16.572391794000
         71         2   -2.0        11.598225000000       13.392476651744       16.572391794000
         72         2   -2.0        7.732227321500       2.232124083546       18.150623505000
         73         1   4.0        15.464300000000       13.392476651744       18.939845897000
         74         1   4.0        5.799112500000       3.348119162936       18.939845897000
         75         1   4.0        11.598225000000       13.392476651744       18.939845897000
         76         1   4.0        9.665187500000       3.348119162936       18.939845897000
         77         2   -2.0        15.464300000000       13.392476651744       0.000000000000
         78         2   -2.0        7.732072678500       4.464114242326       19.729068289000
         79         2   -2.0        5.799035178500       1.115995079390       19.729068289000
         80         2   -2.0        9.665187500000       3.348119162936       0.000000000000
         81         2   -2.0        5.799112500000       3.348119162936       0.000000000000
         82         2   -2.0        1.932960178500       1.115995079390       19.729068289000
         83         2   -2.0        3.865997678500       4.464114242326       19.729068289000
         84         2   -2.0        11.598225000000       13.392476651744       0.000000000000
         85         1   4.0        3.866075000000       6.696238325872       0.000000000000
         86         1   4.0        9.665187500000       10.044357488808       0.000000000000
         87         1   4.0        7.732150000000       6.696238325872       0.000000000000
         88         1   4.0        5.799112500000       10.044357488808       0.000000000000
         89         2   -2.0        11.598225000000       6.696238325872       2.367454103000
         90         2   -2.0        11.598147678500       11.160352568198       0.789222392000
         91         2   -2.0        9.665110178500       7.812233405262       0.789222392000
         92         2   -2.0        13.531262500000       10.044357488808       2.367454103000
         93         2   -2.0        9.665187500000       10.044357488808       2.367454103000
         94         2   -2.0        5.799035178500       7.812233405262       0.789222392000
         95         2   -2.0        7.732072678500       11.160352568198       0.789222392000
         96         2   -2.0        7.732150000000       6.696238325872       2.367454103000
         97         1   4.0        11.598147678500       11.160352568198       3.156676495000
         98         1   4.0        5.799035178500       7.812233405262       3.156676495000
         99         1   4.0        7.732072678500       11.160352568198       3.156676495000
         100         1   4.0        9.665110178500       7.812233405262       3.156676495000
         101         2   -2.0        11.598147678500       11.160352568198       5.524130598000
         102         2   -2.0        7.732227321500       8.928362409418       3.945898887000
         103         2   -2.0        9.665264821500       12.276481572354       3.945898887000
         104         2   -2.0        9.665110178500       7.812233405262       5.524130598000
         105         2   -2.0        5.799035178500       7.812233405262       5.524130598000
         106         2   -2.0        13.531339821500       12.276481572354       3.945898887000
         107         2   -2.0        11.598302321500       8.928362409418       3.945898887000
         108         2   -2.0        7.732072678500       11.160352568198       5.524130598000
         109         1   4.0        7.732227321500       8.928362409418       6.313352990000
         110         1   4.0        13.531339821500       12.276481572354       6.313352990000
         111         1   4.0        11.598302321500       8.928362409418       6.313352990000
         112         1   4.0        9.665264821500       12.276481572354       6.313352990000
         113         2   -2.0        7.732227321500       8.928362409418       8.680807093000
         114         2   -2.0        11.598225000000       6.696238325872       7.102362309000
         115         2   -2.0        13.531262500000       10.044357488808       7.102362309000
         116         2   -2.0        9.665264821500       12.276481572354       8.680807093000
         117         2   -2.0        13.531339821500       12.276481572354       8.680807093000
         118         2   -2.0        9.665187500000       10.044357488808       7.102362309000
         119         2   -2.0        7.732150000000       6.696238325872       7.102362309000
         120         2   -2.0        11.598302321500       8.928362409418       8.680807093000
         121         1   4.0        11.598225000000       6.696238325872       9.469816412000
         122         1   4.0        9.665187500000       10.044357488808       9.469816412000
         123         1   4.0        7.732150000000       6.696238325872       9.469816412000
         124         1   4.0        13.531262500000       10.044357488808       9.469816412000
         125         2   -2.0        11.598225000000       6.696238325872       11.837483588000
         126         2   -2.0        11.598147678500       11.160352568198       10.259038804000
         127         2   -2.0        9.665110178500       7.812233405262       10.259038804000
         128         2   -2.0        13.531262500000       10.044357488808       11.837483588000
         129         2   -2.0        9.665187500000       10.044357488808       11.837483588000
         130         2   -2.0        5.799035178500       7.812233405262       10.259038804000
         131         2   -2.0        7.732072678500       11.160352568198       10.259038804000
         132         2   -2.0        7.732150000000       6.696238325872       11.837483588000
         133         1   4.0        11.598147678500       11.160352568198       12.626492907000
         134         1   4.0        5.799035178500       7.812233405262       12.626492907000
         135         1   4.0        7.732072678500       11.160352568198       12.626492907000
         136         1   4.0        9.665110178500       7.812233405262       12.626492907000
         137         2   -2.0        11.598147678500       11.160352568198       14.993947010000
         138         2   -2.0        7.732227321500       8.928362409418       13.415715299000
         139         2   -2.0        9.665264821500       12.276481572354       13.415715299000
         140         2   -2.0        9.665110178500       7.812233405262       14.993947010000
         141         2   -2.0        5.799035178500       7.812233405262       14.993947010000
         142         2   -2.0        13.531339821500       12.276481572354       13.415715299000
         143         2   -2.0        11.598302321500       8.928362409418       13.415715299000
         144         2   -2.0        7.732072678500       11.160352568198       14.993947010000
         145         1   4.0        7.732227321500       8.928362409418       15.783169402000
         146         1   4.0        13.531339821500       12.276481572354       15.783169402000
         147         1   4.0        11.598302321500       8.928362409418       15.783169402000
         148         1   4.0        9.665264821500       12.276481572354       15.783169402000
         149         2   -2.0        7.732227321500       8.928362409418       18.150623505000
         150         2   -2.0        11.598225000000       6.696238325872       16.572391794000
         151         2   -2.0        13.531262500000       10.044357488808       16.572391794000
         152         2   -2.0        9.665264821500       12.276481572354       18.150623505000
         153         2   -2.0        13.531339821500       12.276481572354       18.150623505000
         154         2   -2.0        9.665187500000       10.044357488808       16.572391794000
         155         2   -2.0        7.732150000000       6.696238325872       16.572391794000
         156         2   -2.0        11.598302321500       8.928362409418       18.150623505000
         157         1   4.0        11.598225000000       6.696238325872       18.939845897000
         158         1   4.0        9.665187500000       10.044357488808       18.939845897000
         159         1   4.0        7.732150000000       6.696238325872       18.939845897000
         160         1   4.0        13.531262500000       10.044357488808       18.939845897000
         161         2   -2.0        11.598225000000       6.696238325872       0.000000000000
         162         2   -2.0        11.598147678500       11.160352568198       19.729068289000
         163         2   -2.0        9.665110178500       7.812233405262       19.729068289000
         164         2   -2.0        13.531262500000       10.044357488808       0.000000000000
         165         2   -2.0        9.665187500000       10.044357488808       0.000000000000
         166         2   -2.0        5.799035178500       7.812233405262       19.729068289000
         167         2   -2.0        7.732072678500       11.160352568198       19.729068289000
         168         2   -2.0        7.732150000000       6.696238325872       0.000000000000
         169         1   4.0        7.732150000000       0.000000000000       0.000000000000
         170         1   4.0        13.531262500000       3.348119162936       0.000000000000
         171         1   4.0        11.598225000000       0.000000000000       0.000000000000
         172         1   4.0        9.665187500000       3.348119162936       0.000000000000
         173         2   -2.0        0.000000000000       0.000000000000       2.367454103000
         174         2   -2.0        15.464222678500       4.464114242326       0.789222392000
         175         2   -2.0        13.531185178500       1.115995079390       0.789222392000
         176         2   -2.0        1.933037500000       3.348119162936       2.367454103000
         177         2   -2.0        13.531262500000       3.348119162936       2.367454103000
         178         2   -2.0        9.665110178500       1.115995079390       0.789222392000
         179         2   -2.0        11.598147678500       4.464114242326       0.789222392000
         180         2   -2.0        11.598225000000       0.000000000000       2.367454103000
         181         1   4.0        15.464222678500       4.464114242326       3.156676495000
         182         1   4.0        9.665110178500       1.115995079390       3.156676495000
         183         1   4.0        11.598147678500       4.464114242326       3.156676495000
         184         1   4.0        13.531185178500       1.115995079390       3.156676495000
         185         2   -2.0        15.464222678500       4.464114242326       5.524130598000
         186         2   -2.0        11.598302321500       2.232124083546       3.945898887000
         187         2   -2.0        13.531339821500       5.580243246482       3.945898887000
         188         2   -2.0        13.531185178500       1.115995079390       5.524130598000
         189         2   -2.0        9.665110178500       1.115995079390       5.524130598000
         190         2   -2.0        17.397414821500       5.580243246482       3.945898887000
         191         2   -2.0        15.464377321500       2.232124083546       3.945898887000
         192         2   -2.0        11.598147678500       4.464114242326       5.524130598000
         193         1   4.0        11.598302321500       2.232124083546       6.313352990000
         194         1   4.0        17.397414821500       5.580243246482       6.313352990000
         195         1   4.0        15.464377321500       2.232124083546       6.313352990000
         196         1   4.0        13.531339821500       5.580243246482       6.313352990000
         197         2   -2.0        11.598302321500       2.232124083546       8.680807093000
         198         2   -2.0        7.732150000000       13.392476651744       7.102362309000
         199         2   -2.0        17.397337500000       3.348119162936       7.102362309000
         200         2   -2.0        13.531339821500       5.580243246482       8.680807093000
         201         2   -2.0        17.397414821500       5.580243246482       8.680807093000
         202         2   -2.0        13.531262500000       3.348119162936       7.102362309000
         203         2   -2.0        19.330375000000       13.392476651744       7.102362309000
         204         2   -2.0        15.464377321500       2.232124083546       8.680807093000
         205         1   4.0        15.464300000000       0.000000000000       9.469816412000
         206         1   4.0        13.531262500000       3.348119162936       9.469816412000
         207         1   4.0        11.598225000000       0.000000000000       9.469816412000
         208         1   4.0        17.397337500000       3.348119162936       9.469816412000
         209         2   -2.0        15.464300000000       0.000000000000       11.837483588000
         210         2   -2.0        15.464222678500       4.464114242326       10.259038804000
         211         2   -2.0        13.531185178500       1.115995079390       10.259038804000
         212         2   -2.0        1.933037500000       3.348119162936       11.837483588000
         213         2   -2.0        13.531262500000       3.348119162936       11.837483588000
         214         2   -2.0        9.665110178500       1.115995079390       10.259038804000
         215         2   -2.0        11.598147678500       4.464114242326       10.259038804000
         216         2   -2.0        11.598225000000       0.000000000000       11.837483588000
         217         1   4.0        15.464222678500       4.464114242326       12.626492907000
         218         1   4.0        9.665110178500       1.115995079390       12.626492907000
         219         1   4.0        11.598147678500       4.464114242326       12.626492907000
         220         1   4.0        13.531185178500       1.115995079390       12.626492907000
         221         2   -2.0        15.464222678500       4.464114242326       14.993947010000
         222         2   -2.0        11.598302321500       2.232124083546       13.415715299000
         223         2   -2.0        13.531339821500       5.580243246482       13.415715299000
         224         2   -2.0        13.531185178500       1.115995079390       14.993947010000
         225         2   -2.0        9.665110178500       1.115995079390       14.993947010000
         226         2   -2.0        17.397414821500       5.580243246482       13.415715299000
         227         2   -2.0        15.464377321500       2.232124083546       13.415715299000
         228         2   -2.0        11.598147678500       4.464114242326       14.993947010000
         229         1   4.0        11.598302321500       2.232124083546       15.783169402000
         230         1   4.0        17.397414821500       5.580243246482       15.783169402000
         231         1   4.0        15.464377321500       2.232124083546       15.783169402000
         232         1   4.0        13.531339821500       5.580243246482       15.783169402000
         233         2   -2.0        11.598302321500       2.232124083546       18.150623505000
         234         2   -2.0        7.732150000000       13.392476651744       16.572391794000
         235         2   -2.0        1.933037500000       3.348119162936       16.572391794000
         236         2   -2.0        13.531339821500       5.580243246482       18.150623505000
         237         2   -2.0        17.397414821500       5.580243246482       18.150623505000
         238         2   -2.0        13.531262500000       3.348119162936       16.572391794000
         239         2   -2.0        19.330375000000       13.392476651744       16.572391794000
         240         2   -2.0        15.464377321500       2.232124083546       18.150623505000
         241         1   4.0        7.732150000000       13.392476651744       18.939845897000
         242         1   4.0        13.531262500000       3.348119162936       18.939845897000
         243         1   4.0        19.330375000000       13.392476651744       18.939845897000
         244         1   4.0        1.933037500000       3.348119162936       18.939845897000
         245         2   -2.0        7.732150000000       13.392476651744       0.000000000000
         246         2   -2.0        15.464222678500       4.464114242326       19.729068289000
         247         2   -2.0        13.531185178500       1.115995079390       19.729068289000
         248         2   -2.0        1.933037500000       3.348119162936       0.000000000000
         249         2   -2.0        13.531262500000       3.348119162936       0.000000000000
         250         2   -2.0        9.665110178500       1.115995079390       19.729068289000
         251         2   -2.0        11.598147678500       4.464114242326       19.729068289000
         252         2   -2.0        19.330375000000       13.392476651744       0.000000000000
         253         1   4.0        11.598225000000       6.696238325872       0.000000000000
         254         1   4.0        17.397337500000       10.044357488808       0.000000000000
         255         1   4.0        15.464300000000       6.696238325872       0.000000000000
         256         1   4.0        13.531262500000       10.044357488808       0.000000000000
         257         2   -2.0        3.866075000000       6.696238325872       2.367454103000
         258         2   -2.0        19.330297678500       11.160352568198       0.789222392000
         259         2   -2.0        17.397260178500       7.812233405262       0.789222392000
         260         2   -2.0        5.799112500000       10.044357488808       2.367454103000
         261         2   -2.0        17.397337500000       10.044357488808       2.367454103000
         262         2   -2.0        13.531185178500       7.812233405262       0.789222392000
         263         2   -2.0        15.464222678500       11.160352568198       0.789222392000
         264         2   -2.0        15.464300000000       6.696238325872       2.367454103000
         265         1   4.0        19.330297678500       11.160352568198       3.156676495000
         266         1   4.0        13.531185178500       7.812233405262       3.156676495000
         267         1   4.0        15.464222678500       11.160352568198       3.156676495000
         268         1   4.0        17.397260178500       7.812233405262       3.156676495000
         269         2   -2.0        19.330297678500       11.160352568198       5.524130598000
         270         2   -2.0        15.464377321500       8.928362409418       3.945898887000
         271         2   -2.0        17.397414821500       12.276481572354       3.945898887000
         272         2   -2.0        17.397260178500       7.812233405262       5.524130598000
         273         2   -2.0        13.531185178500       7.812233405262       5.524130598000
         274         2   -2.0        21.263489821500       12.276481572354       3.945898887000
         275         2   -2.0        19.330452321500       8.928362409418       3.945898887000
         276         2   -2.0        15.464222678500       11.160352568198       5.524130598000
         277         1   4.0        15.464377321500       8.928362409418       6.313352990000
         278         1   4.0        21.263489821500       12.276481572354       6.313352990000
         279         1   4.0        19.330452321500       8.928362409418       6.313352990000
         280         1   4.0        17.397414821500       12.276481572354       6.313352990000
         281         2   -2.0        15.464377321500       8.928362409418       8.680807093000
         282         2   -2.0        19.330375000000       6.696238325872       7.102362309000
         283         2   -2.0        5.799112500000       10.044357488808       7.102362309000
         284         2   -2.0        17.397414821500       12.276481572354       8.680807093000
         285         2   -2.0        21.263489821500       12.276481572354       8.680807093000
         286         2   -2.0        17.397337500000       10.044357488808       7.102362309000
         287         2   -2.0        15.464300000000       6.696238325872       7.102362309000
         288         2   -2.0        19.330452321500       8.928362409418       8.680807093000
         289         1   4.0        19.330375000000       6.696238325872       9.469816412000
         290         1   4.0        17.397337500000       10.044357488808       9.469816412000
         291         1   4.0        15.464300000000       6.696238325872       9.469816412000
         292         1   4.0        5.799112500000       10.044357488808       9.469816412000
         293         2   -2.0        19.330375000000       6.696238325872       11.837483588000
         294         2   -2.0        19.330297678500       11.160352568198       10.259038804000
         295         2   -2.0        17.397260178500       7.812233405262       10.259038804000
         296         2   -2.0        5.799112500000       10.044357488808       11.837483588000
         297         2   -2.0        17.397337500000       10.044357488808       11.837483588000
         298         2   -2.0        13.531185178500       7.812233405262       10.259038804000
         299         2   -2.0        15.464222678500       11.160352568198       10.259038804000
         300         2   -2.0        15.464300000000       6.696238325872       11.837483588000
         301         1   4.0        19.330297678500       11.160352568198       12.626492907000
         302         1   4.0        13.531185178500       7.812233405262       12.626492907000
         303         1   4.0        15.464222678500       11.160352568198       12.626492907000
         304         1   4.0        17.397260178500       7.812233405262       12.626492907000
         305         2   -2.0        19.330297678500       11.160352568198       14.993947010000
         306         2   -2.0        15.464377321500       8.928362409418       13.415715299000
         307         2   -2.0        17.397414821500       12.276481572354       13.415715299000
         308         2   -2.0        17.397260178500       7.812233405262       14.993947010000
         309         2   -2.0        13.531185178500       7.812233405262       14.993947010000
         310         2   -2.0        21.263489821500       12.276481572354       13.415715299000
         311         2   -2.0        19.330452321500       8.928362409418       13.415715299000
         312         2   -2.0        15.464222678500       11.160352568198       14.993947010000