ITEM: TIMESTEP
0
ITEM: NUMBER OF ATOMS
336
ITEM: BOX BOUNDS xy xz yz pp pp pp
0.0000000000000000e+00 2.5129462906297999e+01 7.7321424350000001e+00
-1.1160386247630001e+00 1.3392463548779000e+01 1.9330356012979999e+00
0.0000000000000000e+00 1.4520516084427399e+02 -1.1160386247630001e+00
ITEM: ATOMS id xu yu zu 
1 5.79911 1.11604 143.627 
2 7.73214 4.46415 143.627 
3 9.66518 7.81227 143.627 
4 11.5982 11.1604 143.627 
5 9.66518 1.11604 143.627 
6 11.5982 4.46415 143.627 
7 13.5312 7.81227 143.627 
8 15.4643 11.1604 143.627 
9 13.5312 1.11604 143.627 
10 15.4643 4.46415 143.627 
11 17.3973 7.81227 143.627 
12 19.3304 11.1604 143.627 
13 17.3973 1.11604 143.627 
14 19.3304 4.46415 143.627 
15 21.2634 7.81227 143.627 
16 23.1964 11.1604 143.627 
17 3.86607 2.23208 140.47 
18 5.79911 5.58019 140.47 
19 7.73214 8.92831 140.47 
20 9.66518 12.2764 140.47 
21 7.73214 2.23208 140.47 
22 9.66518 5.58019 140.47 
23 11.5982 8.92831 140.47 
24 13.5312 12.2764 140.47 
25 11.5982 2.23208 140.47 
26 13.5312 5.58019 140.47 
27 15.4643 8.92831 140.47 
28 17.3973 12.2764 140.47 
29 15.4643 2.23208 140.47 
30 17.3973 5.58019 140.47 
31 19.3304 8.92831 140.47 
32 21.2634 12.2764 140.47 
33 3.86607 3.755e-08 137.314 
34 5.79911 3.34812 137.314 
35 7.73214 6.69623 137.314 
36 9.66518 10.0443 137.314 
37 7.73214 3.755e-08 137.314 
38 9.66518 3.34812 137.314 
39 11.5982 6.69623 137.314 
40 13.5312 10.0443 137.314 
41 11.5982 3.755e-08 137.314 
42 13.5312 3.34812 137.314 
43 15.4643 6.69623 137.314 
44 17.3973 10.0443 137.314 
45 15.4643 3.755e-08 137.314 
46 17.3973 3.34812 137.314 
47 19.3304 6.69623 137.314 
48 21.2634 10.0443 137.314 
49 5.79911 1.11604 134.157 
50 7.73214 4.46415 134.157 
51 9.66518 7.81227 134.157 
52 11.5982 11.1604 134.157 
53 9.66518 1.11604 134.157 
54 11.5982 4.46415 134.157 
55 13.5312 7.81227 134.157 
56 15.4643 11.1604 134.157 
57 13.5312 1.11604 134.157 
58 15.4643 4.46415 134.157 
59 17.3973 7.81227 134.157 
60 19.3304 11.1604 134.157 
61 17.3973 1.11604 134.157 
62 19.3304 4.46415 134.157 
63 21.2634 7.81227 134.157 
64 23.1964 11.1604 134.157 
65 3.86607 2.23208 131 
66 5.79911 5.58019 131 
67 7.73214 8.92831 131 
68 9.66518 12.2764 131 
69 7.73214 2.23208 131 
70 9.66518 5.58019 131 
71 11.5982 8.92831 131 
72 13.5312 12.2764 131 
73 11.5982 2.23208 131 
74 13.5312 5.58019 131 
75 15.4643 8.92831 131 
76 17.3973 12.2764 131 
77 15.4643 2.23208 131 
78 17.3973 5.58019 131 
79 19.3304 8.92831 131 
80 21.2634 12.2764 131 
81 3.86607 7.075e-08 127.844 
82 5.79911 3.34812 127.844 
83 7.73214 6.69623 127.844 
84 9.66518 10.0443 127.844 
85 7.73214 7.075e-08 127.844 
86 9.66518 3.34812 127.844 
87 11.5982 6.69623 127.844 
88 13.5312 10.0443 127.844 
89 11.5982 7.075e-08 127.844 
90 13.5312 3.34812 127.844 
91 15.4643 6.69623 127.844 
92 17.3973 10.0443 127.844 
93 15.4643 7.075e-08 127.844 
94 17.3973 3.34812 127.844 
95 19.3304 6.69623 127.844 
96 21.2634 10.0443 127.844 
97 5.79911 1.11604 124.687 
98 7.73214 4.46415 124.687 
99 9.66518 7.81227 124.687 
100 11.5982 11.1604 124.687 
101 9.66518 1.11604 124.687 
102 11.5982 4.46415 124.687 
103 13.5312 7.81227 124.687 
104 15.4643 11.1604 124.687 
105 13.5312 1.11604 124.687 
106 15.4643 4.46415 124.687 
107 17.3973 7.81227 124.687 
108 19.3304 11.1604 124.687 
109 17.3973 1.11604 124.687 
110 19.3304 4.46415 124.687 
111 21.2634 7.81227 124.687 
112 23.1964 11.1604 124.687 
113 3.86607 -6.2683e-08 144.416 
114 5.79911 3.34812 144.416 
115 7.73214 6.69623 144.416 
116 9.66518 10.0443 144.416 
117 7.73214 -6.2683e-08 144.416 
118 9.66518 3.34812 144.416 
119 11.5982 6.69623 144.416 
120 13.5312 10.0443 144.416 
121 11.5982 -6.2683e-08 144.416 
122 13.5312 3.34812 144.416 
123 15.4643 6.69623 144.416 
124 17.3973 10.0443 144.416 
125 15.4643 -6.2683e-08 144.416 
126 17.3973 3.34812 144.416 
127 19.3304 6.69623 144.416 
128 21.2634 10.0443 144.416 
129 3.86607 2.23208 142.838 
130 5.79911 5.58019 142.838 
131 7.73214 8.92831 142.838 
132 9.66518 12.2764 142.838 
133 7.73214 2.23208 142.838 
134 9.66518 5.58019 142.838 
135 11.5982 8.92831 142.838 
136 13.5312 12.2764 142.838 
137 11.5982 2.23208 142.838 
138 13.5312 5.58019 142.838 
139 15.4643 8.92831 142.838 
140 17.3973 12.2764 142.838 
141 15.4643 2.23208 142.838 
142 17.3973 5.58019 142.838 
143 19.3304 8.92831 142.838 
144 21.2634 12.2764 142.838 
145 5.79911 1.11604 141.259 
146 7.73214 4.46415 141.259 
147 9.66518 7.81227 141.259 
148 11.5982 11.1604 141.259 
149 9.66518 1.11604 141.259 
150 11.5982 4.46415 141.259 
151 13.5312 7.81227 141.259 
152 15.4643 11.1604 141.259 
153 13.5312 1.11604 141.259 
154 15.4643 4.46415 141.259 
155 17.3973 7.81227 141.259 
156 19.3304 11.1604 141.259 
157 17.3973 1.11604 141.259 
158 19.3304 4.46415 141.259 
159 21.2634 7.81227 141.259 
160 23.1964 11.1604 141.259 
161 3.86607 -4.0503e-08 139.681 
162 5.79911 3.34812 139.681 
163 7.73214 6.69623 139.681 
164 9.66518 10.0443 139.681 
165 7.73214 -4.0503e-08 139.681 
166 9.66518 3.34812 139.681 
167 11.5982 6.69623 139.681 
168 13.5312 10.0443 139.681 
169 11.5982 -4.0503e-08 139.681 
170 13.5312 3.34812 139.681 
171 15.4643 6.69623 139.681 
172 17.3973 10.0443 139.681 
173 15.4643 -4.0503e-08 139.681 
174 17.3973 3.34812 139.681 
175 19.3304 6.69623 139.681 
176 21.2634 10.0443 139.681 
177 3.86607 2.23208 138.103 
178 5.79911 5.58019 138.103 
179 7.73214 8.92831 138.103 
180 9.66518 12.2764 138.103 
181 7.73214 2.23208 138.103 
182 9.66518 5.58019 138.103 
183 11.5982 8.92831 138.103 
184 13.5312 12.2764 138.103 
185 11.5982 2.23208 138.103 
186 13.5312 5.58019 138.103 
187 15.4643 8.92831 138.103 
188 17.3973 12.2764 138.103 
189 15.4643 2.23208 138.103 
190 17.3973 5.58019 138.103 
191 19.3304 8.92831 138.103 
192 21.2634 12.2764 138.103 
193 5.79911 1.11604 136.524 
194 7.73214 4.46415 136.524 
195 9.66518 7.81227 136.524 
196 11.5982 11.1604 136.524 
197 9.66518 1.11604 136.524 
198 11.5982 4.46415 136.524 
199 13.5312 7.81227 136.524 
200 15.4643 11.1604 136.524 
201 13.5312 1.11604 136.524 
202 15.4643 4.46415 136.524 
203 17.3973 7.81227 136.524 
204 19.3304 11.1604 136.524 
205 17.3973 1.11604 136.524 
206 19.3304 4.46415 136.524 
207 21.2634 7.81227 136.524 
208 23.1964 11.1604 136.524 
209 3.86607 -2.9483e-08 134.946 
210 5.79911 3.34812 134.946 
211 7.73214 6.69623 134.946 
212 9.66518 10.0443 134.946 
213 7.73214 -2.9483e-08 134.946 
214 9.66518 3.34812 134.946 
215 11.5982 6.69623 134.946 
216 13.5312 10.0443 134.946 
217 11.5982 -2.9483e-08 134.946 
218 13.5312 3.34812 134.946 
219 15.4643 6.69623 134.946 
220 17.3973 10.0443 134.946 
221 15.4643 -2.9483e-08 134.946 
222 17.3973 3.34812 134.946 
223 19.3304 6.69623 134.946 
224 21.2634 10.0443 134.946 
225 3.86607 2.23208 133.368 
226 5.79911 5.58019 133.368 
227 7.73214 8.92831 133.368 
228 9.66518 12.2764 133.368 
229 7.73214 2.23208 133.368 
230 9.66518 5.58019 133.368 
231 11.5982 8.92831 133.368 
232 13.5312 12.2764 133.368 
233 11.5982 2.23208 133.368 
234 13.5312 5.58019 63.8979 
235 15.4643 8.92831 133.368 
236 17.3973 12.2764 133.368 
237 15.4643 2.23208 133.368 
238 17.3973 5.58019 133.368 
239 19.3304 8.92831 133.368 
240 21.2634 12.2764 133.368 
241 5.79911 1.11604 131.789 
242 7.73214 4.46415 131.789 
243 9.66518 7.81227 131.789 
244 11.5982 11.1604 131.789 
245 9.66518 1.11604 131.789 
246 11.5982 4.46415 131.789 
247 13.5312 7.81227 131.789 
248 15.4643 11.1604 131.789 
249 13.5312 1.11604 131.789 
250 15.4643 4.46415 131.789 
251 17.3973 7.81227 131.789 
252 19.3304 11.1604 131.789 
253 17.3973 1.11604 131.789 
254 19.3304 4.46415 131.789 
255 21.2634 7.81227 131.789 
256 23.1964 11.1604 131.789 
257 3.86607 -7.302e-09 130.211 
258 5.79911 3.34812 130.211 
259 7.73214 6.69623 130.211 
260 9.66518 10.0443 130.211 
261 7.73214 -7.302e-09 130.211 
262 9.66518 3.34812 130.211 
263 11.5982 6.69623 130.211 
264 13.5312 10.0443 130.211 
265 11.5982 -7.302e-09 130.211 
266 13.5312 3.34812 130.211 
267 15.4643 6.69623 130.211 
268 17.3973 10.0443 130.211 
269 15.4643 -7.302e-09 130.211 
270 17.3973 3.34812 130.211 
271 19.3304 6.69623 130.211 
272 21.2634 10.0443 130.211 
273 3.86607 2.23208 128.633 
274 5.79911 5.58019 128.633 
275 7.73214 8.92831 128.633 
276 9.66518 12.2764 128.633 
277 7.73214 2.23208 128.633 
278 9.66518 5.58019 128.633 
279 11.5982 8.92831 128.633 
280 13.5312 12.2764 128.633 
281 11.5982 2.23208 128.633 
282 13.5312 5.58019 128.633 
283 15.4643 8.92831 128.633 
284 17.3973 12.2764 128.633 
285 15.4643 2.23208 128.633 
286 17.3973 5.58019 128.633 
287 19.3304 8.92831 128.633 
288 21.2634 12.2764 128.633 
289 5.79911 1.11604 127.055 
290 7.73214 4.46415 127.055 
291 9.66518 7.81227 127.055 
292 11.5982 11.1604 127.055 
293 9.66518 1.11604 127.055 
294 11.5982 4.46415 127.055 
295 13.5312 7.81227 127.055 
296 15.4643 11.1604 127.055 
297 13.5312 1.11604 127.055 
298 15.4643 4.46415 127.055 
299 17.3973 7.81227 127.055 
300 19.3304 11.1604 127.055 
301 17.3973 1.11604 127.055 
302 19.3304 4.46415 127.055 
303 21.2634 7.81227 127.055 
304 23.1964 11.1604 127.055 
305 3.86607 1.4878e-08 125.476 
306 5.79911 3.34812 125.476 
307 7.73214 6.69623 125.476 
308 9.66518 10.0443 125.476 
309 7.73214 1.4878e-08 125.476 
310 9.66518 3.34812 125.476 
311 11.5982 6.69623 125.476 
312 13.5312 10.0443 125.476 
313 11.5982 1.4878e-08 125.476 
314 13.5312 3.34812 125.476 
315 15.4643 6.69623 125.476 
316 17.3973 10.0443 125.476 
317 15.4643 1.4878e-08 125.476 
318 17.3973 3.34812 125.476 
319 19.3304 6.69623 125.476 
320 21.2634 10.0443 125.476 
321 3.86607 2.23208 123.898 
322 5.79911 5.58019 123.898 
323 7.73214 8.92831 123.898 
324 9.66518 12.2764 123.898 
325 7.73214 2.23208 123.898 
326 9.66518 5.58019 123.898 
327 11.5982 8.92831 123.898 
328 13.5312 12.2764 123.898 
329 11.5982 2.23208 123.898 
330 13.5312 5.58019 123.898 
331 15.4643 8.92831 123.898 
332 17.3973 12.2764 123.898 
333 15.4643 2.23208 123.898 
334 17.3973 5.58019 123.898 
335 19.3304 8.92831 123.898 
336 21.2634 12.2764 123.898 
ITEM: TIMESTEP
16
ITEM: NUMBER OF ATOMS
336
ITEM: BOX BOUNDS xy xz yz pp pp pp
0.0000000000000000e+00 2.5129462906297999e+01 7.7321424350000001e+00
-1.1160386247630001e+00 1.3392463548779000e+01 1.9330356012979999e+00
0.0000000000000000e+00 1.4520516084427399e+02 -1.1160386247630001e+00
ITEM: ATOMS id xu yu zu 
1 5.79916 1.11483 143.701 
2 7.73442 4.46647 143.688 
3 9.66546 7.81203 143.696 
4 11.5981 11.1579 143.683 
5 9.66774 1.11749 143.684 
6 11.5982 4.4644 143.692 
7 13.5328 7.81397 143.69 
8 15.4648 11.1563 143.689 
9 13.5313 1.1155 143.697 
10 15.466 4.46463 143.69 
11 17.3992 7.81252 143.697 
12 19.3313 11.1625 143.669 
13 17.3958 1.11679 143.684 
14 19.3283 4.46634 143.69 
15 21.2662 7.81323 143.669 
16 23.1956 11.1603 143.677 
17 3.86923 2.23652 140.514 
18 5.80036 5.58425 140.503 
19 7.7377 8.92975 140.5 
20 9.66619 12.2826 140.504 
21 7.73194 2.23638 140.514 
22 9.67005 5.58711 140.506 
23 11.5977 8.93014 140.505 
24 13.5363 12.2831 140.514 
25 11.6049 2.23556 140.505 
26 13.531 5.58611 140.503 
27 15.4658 8.9258 140.505 
28 17.3995 12.2789 140.502 
29 15.4595 2.23608 140.505 
30 17.3941 5.58587 140.505 
31 19.3265 8.92751 140.5 
32 21.2657 12.2806 140.5 
33 3.86386 0.00410536 137.343 
34 5.79832 3.35496 137.342 
35 7.73774 6.69627 137.326 
36 9.6716 10.0436 137.328 
37 7.7328 0.00476604 137.342 
38 9.65686 3.34491 137.354 
39 11.6075 6.69122 137.322 
40 13.5317 10.0556 137.354 
41 11.5973 0.00606144 137.328 
42 13.5311 3.35896 137.322 
43 15.455 6.69141 137.321 
44 17.3914 10.0437 137.327 
45 15.4653 0.00642968 137.329 
46 17.4055 3.34513 137.353 
47 19.3245 6.69709 137.325 
48 21.2645 10.0466 137.341 
49 5.79911 1.12125 134.152 
50 7.71546 4.46657 134.157 
51 9.68037 7.8041 134.151 
52 11.5884 11.1744 134.157 
53 9.6586 1.09942 134.156 
54 11.5394 4.42989 134.183 
55 13.5314 7.88037 134.184 
56 15.4741 11.1744 134.155 
57 13.5311 1.133 134.151 
58 15.5231 4.43018 134.183 
59 17.3837 7.80468 134.15 
60 19.338 11.1581 134.158 
61 17.4038 1.09939 134.155 
62 19.3466 4.46741 134.156 
63 21.2665 7.81991 134.156 
64 23.1894 11.157 134.16 
65 3.86131 2.23828 130.986 
66 5.80259 5.58361 130.97 
67 7.73523 8.9328 130.979 
68 9.6666 12.28 130.97 
69 7.73733 2.2358 130.986 
70 9.68199 5.58356 130.989 
71 11.6038 8.91175 130.989 
72 13.5294 12.2689 130.986 
73 11.6099 2.24524 130.989 
74 13.5313 5.58019 130.891 
75 15.4591 8.91229 130.989 
76 17.3976 12.2791 130.97 
77 15.4529 2.24618 130.989 
78 17.3817 5.58448 130.989 
79 19.3304 8.93188 130.979 
80 21.2672 12.2766 130.979 
81 3.86929 0.00349103 127.813 
82 5.79981 3.34542 127.813 
83 7.73447 6.69555 127.812 
84 9.66824 10.0431 127.812 
85 7.72899 0.00269605 127.814 
86 9.67121 3.35312 127.817 
87 11.5874 6.70282 127.777 
88 13.5315 10.0376 127.817 
89 11.5979 0.00390874 127.814 
90 13.5316 3.33566 127.777 
91 15.4751 6.70338 127.778 
92 17.395 10.0426 127.813 
93 15.4647 0.00410541 127.812 
94 17.3915 3.35342 127.817 
95 19.3282 6.69647 127.813 
96 21.2658 10.0471 127.814 
97 5.79899 1.11598 124.612 
98 7.73238 4.46202 124.639 
99 9.6606 7.81526 124.605 
100 11.6006 11.1612 124.641 
101 9.66191 1.11502 124.642 
102 11.5965 4.46334 124.614 
103 13.5313 7.81293 124.615 
104 15.4627 11.1613 124.641 
105 13.5311 1.11182 124.606 
106 15.4657 4.46352 124.614 
107 17.4021 7.81504 124.605 
108 19.3298 11.1631 124.644 
109 17.4002 1.11597 124.641 
110 19.3301 4.46168 124.641 
111 21.2631 7.81159 124.638 
112 23.1966 11.1618 124.638 
113 3.85518 -0.00664567 144.473 
114 5.79765 3.35356 144.469 
115 7.72059 6.6944 144.474 
116 9.66244 10.0553 144.474 
117 7.73894 -0.00580584 144.469 
118 9.66377 3.34594 144.463 
119 11.6018 6.69382 144.467 
120 13.53 10.0419 144.463 
121 11.5898 -0.0085123 144.474 
122 13.5305 3.34931 144.468 
123 15.458 6.69293 144.469 
124 17.401 10.0545 144.473 
125 15.4736 -0.00838752 144.473 
126 17.3968 3.34617 144.463 
127 19.3416 6.69412 144.473 
128 21.2574 10.0396 144.456 
129 3.87415 2.22582 142.902 
130 5.79526 5.57614 142.889 
131 7.74441 8.92268 142.898 
132 9.66746 12.2728 142.884 
133 7.7235 2.22768 142.904 
134 9.66065 5.58382 142.896 
135 11.5871 8.92399 142.898 
136 13.5286 12.2833 142.903 
137 11.6034 2.22466 142.896 
138 13.5306 5.57695 142.891 
139 15.4724 8.92838 142.896 
140 17.3914 12.2735 142.887 
141 15.4562 2.22473 142.898 
142 17.401 5.58334 142.896 
143 19.3197 8.92319 142.897 
144 21.2638 12.2891 142.9 
145 5.80009 1.114 141.322 
146 7.73763 4.46404 141.32 
147 9.66831 7.8084 141.313 
148 11.6035 11.155 141.319 
149 9.66652 1.12113 141.321 
150 11.5968 4.46377 141.32 
151 13.5316 7.81586 141.321 
152 15.461 11.1559 141.319 
153 13.5312 1.11836 141.313 
154 15.4667 4.46357 141.321 
155 17.3946 7.8089 141.314 
156 19.337 11.1581 141.316 
157 17.3965 1.12167 141.321 
158 19.3256 4.46356 141.32 
159 21.2644 7.81928 141.318 
160 23.1901 11.1574 141.316 
161 3.86423 -0.00398543 139.729 
162 5.79981 3.35126 139.731 
163 7.72476 6.69714 139.723 
164 9.66195 10.052 139.725 
165 7.73688 -0.00490168 139.728 
166 9.66821 3.34775 139.725 
167 11.6087 6.69127 139.717 
168 13.5318 10.0419 139.724 
169 11.5954 -0.00619359 139.723 
170 13.5314 3.36065 139.718 
171 15.4546 6.691 139.717 
172 17.4015 10.0508 139.724 
173 15.4688 -0.00604275 139.723 
174 17.395 3.34761 139.724 
175 19.3381 6.69684 139.723 
176 21.262 10.0401 139.709 
177 3.8748 2.22631 138.132 
178 5.79793 5.57328 138.116 
179 7.75446 8.91751 138.118 
180 9.67257 12.2778 138.116 
181 7.72211 2.22734 138.132 
182 9.6594 5.58652 138.133 
183 11.5881 8.92724 138.132 
184 13.5284 12.2832 138.129 
185 11.6024 2.22403 138.132 
186 13.531 5.57833 138.102 
187 15.4741 8.93055 138.132 
188 17.3891 12.279 138.116 
189 15.4589 2.22412 138.132 
190 17.4037 5.58649 138.132 
191 19.3086 8.91719 138.118 
192 21.264 12.2997 138.116 
193 5.79812 1.11321 136.534 
194 7.73961 4.45914 136.539 
195 9.70768 7.78747 136.501 
196 11.6071 11.1567 136.538 
197 9.6638 1.1245 136.536 
198 11.5852 4.45719 136.546 
199 13.531 7.827 136.546 
200 15.4548 11.1578 136.538 
201 13.531 1.16519 136.502 
202 15.477 4.45727 136.546 
203 17.3543 7.7883 136.502 
204 19.3356 11.1583 136.544 
205 17.3984 1.12373 136.535 
206 19.323 4.45832 136.539 
207 21.2637 7.81778 136.544 
208 23.1899 11.1568 136.542 
209 3.86959 -0.00287985 134.955 
210 5.80041 3.344 134.956 
211 7.72742 6.69652 134.956 
212 9.6623 10.0475 134.957 
213 7.73037 -0.00214533 134.956 
214 9.67283 3.35217 134.95 
215 11.7314 6.61956 134.844 
216 13.5314 10.0357 134.951 
217 11.597 -0.00443552 134.956 
218 13.5312 3.50165 134.844 
219 15.3314 6.61978 134.844 
220 17.4008 10.0475 134.957 
221 15.465 -0.0044185 134.956 
222 17.3892 3.35258 134.95 
223 19.3348 6.69726 134.957 
224 21.2578 10.0388 134.939 
225 3.85861 2.23316 133.367 
226 5.79346 5.58392 133.359 
227 7.74315 8.92023 133.357 
228 9.66049 12.2724 133.359 
229 7.73935 2.23337 133.367 
230 9.65593 5.57137 133.366 
231 11.6009 8.94083 133.366 
232 13.534 12.2697 133.366 
233 11.5859 2.22789 133.366 
234 13.5312 5.58019 63.8979 
235 15.462 8.94093 133.367 
236 17.3999 12.2699 133.359 
237 15.4765 2.22786 133.366 
238 17.4074 5.57181 133.366 
239 19.3184 8.92017 133.355 
240 21.2614 12.2891 133.357 
241 5.7977 1.11399 131.791 
242 7.72591 4.46198 131.772 
243 9.68698 7.79874 131.788 
244 11.5973 11.1661 131.772 
245 9.66043 1.11152 131.771 
246 11.7364 4.54389 131.878 
247 13.5315 7.65316 131.878 
248 15.4647 11.1654 131.771 
249 13.5309 1.14138 131.789 
250 15.3264 4.54407 131.878 
251 17.3756 7.79922 131.788 
252 19.3235 11.1644 131.776 
253 17.4022 1.11253 131.771 
254 19.3365 4.46062 131.771 
255 21.2639 7.80444 131.776 
256 23.204 11.164 131.777 
257 3.8781 0.0032551 130.183 
258 5.79924 3.33545 130.184 
259 7.75004 6.69984 130.193 
260 9.66982 10.028 130.193 
261 7.72017 0.00545861 130.185 
262 9.70661 3.37223 130.226 
263 11.5981 6.69589 130.165 
264 13.5305 9.99631 130.225 
265 11.6106 0.0132697 130.194 
266 13.531 3.34817 130.165 
267 15.4647 6.69578 130.165 
268 17.3933 10.0278 130.193 
269 15.4517 0.0123133 130.192 
270 17.3557 3.37303 130.225 
271 19.3134 6.70108 130.194 
272 21.2626 10.0411 130.2 
273 3.84808 2.24083 128.602 
274 5.79587 5.58516 128.599 
275 7.72868 8.92866 128.593 
276 9.65977 12.2729 128.599 
277 7.7501 2.24164 128.601 
278 9.66463 5.57264 128.589 
279 11.6047 8.93213 128.589 
280 13.5341 12.2573 128.6 
281 11.5913 2.23579 128.589 
282 13.5313 5.58047 128.591 
283 15.4581 8.9325 128.589 
284 17.4015 12.2722 128.6 
285 15.4715 2.23615 128.589 
286 17.3984 5.57345 128.589 
287 19.3326 8.92884 128.593 
288 21.2612 12.2735 128.594 
289 5.79827 1.1161 127.007 
290 7.72503 4.46656 126.999 
291 9.66176 7.81429 126.998 
292 11.5937 11.1647 126.999 
293 9.66239 1.1093 126.999 
294 11.6051 4.46789 126.99 
295 13.5318 7.80535 126.99 
296 15.4693 11.1643 126.999 
297 13.5314 1.11265 126.998 
298 15.4575 4.46823 126.991 
299 17.4002 7.81386 126.998 
300 19.3251 11.1642 127 
301 17.4 1.10997 126.998 
302 19.3367 4.46583 126.998 
303 21.2633 7.80478 127 
304 23.2018 11.1646 126.998 
305 3.87872 0.00390347 125.411 
306 5.79906 3.3343 125.411 
307 7.74283 6.70267 125.411 
308 9.66438 10.0326 125.412 
309 7.72011 0.00427307 125.411 
310 9.67247 3.35285 125.429 
311 11.5887 6.70105 125.402 
312 13.5313 10.0352 125.428 
313 11.6062 0.00494449 125.414 
314 13.5306 3.33733 125.401 
315 15.4738 6.70115 125.401 
316 17.3977 10.0335 125.413 
317 15.4547 0.00476795 125.412 
318 17.389 3.35338 125.429 
319 19.3197 6.70286 125.412 
320 21.2625 10.0367 125.435 
321 3.85278 2.23686 123.841 
322 5.79706 5.5835 123.865 
323 7.71906 8.93645 123.836 
324 9.66255 12.272 123.861 
325 7.74567 2.23617 123.841 
326 9.6578 5.56763 123.834 
327 11.6057 8.9405 123.834 
328 13.531 12.262 123.839 
329 11.5834 2.23036 123.835 
330 13.5312 5.5803 123.841 
331 15.4568 8.94032 123.835 
332 17.4012 12.2705 123.857 
333 15.4785 2.23082 123.835 
334 17.405 5.56784 123.834 
335 19.3418 8.93744 123.838 
336 21.2613 12.2613 123.841 
