ITEM: TIMESTEP
0
ITEM: NUMBER OF ATOMS
336
ITEM: BOX BOUNDS xy xz yz pp pp pp
0.0000000000000000e+00 2.3196449999999999e+01 7.7321499999999999e+00
0.0000000000000000e+00 1.3392476651743999e+01 0.0000000000000000e+00
0.0000000000000000e+00 2.6130700000000002e+02 0.0000000000000000e+00
ITEM: ATOMS id xu yu zu 
1 0 0 120 
2 5.79911 3.34812 120 
3 3.86607 0 120 
4 17.3973 3.34812 120 
5 15.4643 13.3925 122.367 
6 7.73207 4.46411 120.789 
7 5.79904 1.116 120.789 
8 9.66519 3.34812 122.367 
9 5.79911 3.34812 122.367 
10 1.93296 1.116 120.789 
11 3.866 4.46411 120.789 
12 11.5982 13.3925 122.367 
13 7.73207 4.46411 123.157 
14 1.93296 1.116 123.157 
15 3.866 4.46411 123.157 
16 5.79904 1.116 123.157 
17 7.73207 4.46411 125.524 
18 3.86615 2.23212 123.946 
19 5.79919 5.58024 123.946 
20 5.79904 1.116 125.524 
21 1.93296 1.116 125.524 
22 9.66526 5.58024 123.946 
23 7.73223 2.23212 123.946 
24 3.866 4.46411 125.524 
25 3.86615 2.23212 126.313 
26 9.66526 5.58024 126.313 
27 7.73223 2.23212 126.313 
28 5.79919 5.58024 126.313 
29 3.86615 2.23212 128.681 
30 15.4643 13.3925 127.102 
31 9.66519 3.34812 127.102 
32 5.79919 5.58024 128.681 
33 9.66526 5.58024 128.681 
34 5.79911 3.34812 127.102 
35 11.5982 13.3925 127.102 
36 7.73223 2.23212 128.681 
37 15.4643 13.3925 129.47 
38 5.79911 3.34812 129.47 
39 11.5982 13.3925 129.47 
40 9.66519 3.34812 129.47 
41 15.4643 13.3925 131.837 
42 7.73207 4.46411 130.259 
43 5.79904 1.116 130.259 
44 9.66519 3.34812 131.837 
45 5.79911 3.34812 131.837 
46 1.93296 1.116 130.259 
47 3.866 4.46411 130.259 
48 11.5982 13.3925 131.837 
49 7.73207 4.46411 132.626 
50 1.93296 1.116 132.626 
51 3.866 4.46411 132.626 
52 5.79904 1.116 132.626 
53 7.73207 4.46411 134.994 
54 3.86615 2.23212 133.416 
55 5.79919 5.58024 133.416 
56 5.79904 1.116 134.994 
57 1.93296 1.116 134.994 
58 9.66526 5.58024 133.416 
59 7.73223 2.23212 133.416 
60 3.866 4.46411 134.994 
61 3.86615 2.23212 135.783 
62 9.66526 5.58024 135.783 
63 7.73223 2.23212 135.783 
64 5.79919 5.58024 135.783 
65 3.86615 2.23212 138.15 
66 15.4643 13.3925 136.572 
67 9.66519 3.34812 136.572 
68 5.79919 5.58024 138.15 
69 9.66526 5.58024 138.15 
70 5.79911 3.34812 136.572 
71 11.5982 13.3925 136.572 
72 7.73223 2.23212 138.15 
73 15.4643 13.3925 138.94 
74 5.79911 3.34812 138.94 
75 11.5982 13.3925 138.94 
76 9.66519 3.34812 138.94 
77 15.4643 13.3925 141.307 
78 7.73207 4.46411 139.729 
79 5.79904 1.116 139.729 
80 9.66519 3.34812 141.307 
81 5.79911 3.34812 141.307 
82 1.93296 1.116 139.729 
83 3.866 4.46411 139.729 
84 11.5982 13.3925 141.307 
85 3.86607 6.69624 120 
86 9.66519 10.0444 120 
87 7.73215 6.69624 120 
88 5.79911 10.0444 120 
89 11.5982 6.69624 122.367 
90 11.5981 11.1604 120.789 
91 9.66511 7.81223 120.789 
92 13.5313 10.0444 122.367 
93 9.66519 10.0444 122.367 
94 5.79904 7.81223 120.789 
95 7.73207 11.1604 120.789 
96 7.73215 6.69624 122.367 
97 11.5981 11.1604 123.157 
98 5.79904 7.81223 123.157 
99 7.73207 11.1604 123.157 
100 9.66511 7.81223 123.157 
101 11.5981 11.1604 125.524 
102 7.73223 8.92836 123.946 
103 9.66526 12.2765 123.946 
104 9.66511 7.81223 125.524 
105 5.79904 7.81223 125.524 
106 13.5313 12.2765 123.946 
107 11.5983 8.92836 123.946 
108 7.73207 11.1604 125.524 
109 7.73223 8.92836 126.313 
110 13.5313 12.2765 126.313 
111 11.5983 8.92836 126.313 
112 9.66526 12.2765 126.313 
113 7.73223 8.92836 128.681 
114 11.5982 6.69624 127.102 
115 13.5313 10.0444 127.102 
116 9.66526 12.2765 128.681 
117 13.5313 12.2765 128.681 
118 9.66519 10.0444 127.102 
119 7.73215 6.69624 127.102 
120 11.5983 8.92836 128.681 
121 11.5982 6.69624 129.47 
122 9.66519 10.0444 129.47 
123 7.73215 6.69624 129.47 
124 13.5313 10.0444 129.47 
125 11.5982 6.69624 201.837 
126 11.5981 11.1604 130.259 
127 9.66511 7.81223 130.259 
128 13.5313 10.0444 131.837 
129 9.66519 10.0444 131.837 
130 5.79904 7.81223 130.259 
131 7.73207 11.1604 130.259 
132 7.73215 6.69624 131.837 
133 11.5981 11.1604 132.626 
134 5.79904 7.81223 132.626 
135 7.73207 11.1604 132.626 
136 9.66511 7.81223 132.626 
137 11.5981 11.1604 134.994 
138 7.73223 8.92836 133.416 
139 9.66526 12.2765 133.416 
140 9.66511 7.81223 134.994 
141 5.79904 7.81223 134.994 
142 13.5313 12.2765 133.416 
143 11.5983 8.92836 133.416 
144 7.73207 11.1604 134.994 
145 7.73223 8.92836 135.783 
146 13.5313 12.2765 135.783 
147 11.5983 8.92836 135.783 
148 9.66526 12.2765 135.783 
149 7.73223 8.92836 138.15 
150 11.5982 6.69624 136.572 
151 13.5313 10.0444 136.572 
152 9.66526 12.2765 138.15 
153 13.5313 12.2765 138.15 
154 9.66519 10.0444 136.572 
155 7.73215 6.69624 136.572 
156 11.5983 8.92836 138.15 
157 11.5982 6.69624 138.94 
158 9.66519 10.0444 138.94 
159 7.73215 6.69624 138.94 
160 13.5313 10.0444 138.94 
161 11.5982 6.69624 141.307 
162 11.5981 11.1604 139.729 
163 9.66511 7.81223 139.729 
164 13.5313 10.0444 141.307 
165 9.66519 10.0444 141.307 
166 5.79904 7.81223 139.729 
167 7.73207 11.1604 139.729 
168 7.73215 6.69624 141.307 
169 7.73215 0 120 
170 13.5313 3.34812 120 
171 11.5982 0 120 
172 9.66519 3.34812 120 
173 7.73215 13.3925 122.367 
174 15.4642 4.46411 120.789 
175 13.5312 1.116 120.789 
176 1.93304 3.34812 122.367 
177 13.5313 3.34812 122.367 
178 9.66511 1.116 120.789 
179 11.5981 4.46411 120.789 
180 19.3304 13.3925 122.367 
181 15.4642 4.46411 123.157 
182 9.66511 1.116 123.157 
183 11.5981 4.46411 123.157 
184 13.5312 1.116 123.157 
185 15.4642 4.46411 125.524 
186 11.5983 2.23212 123.946 
187 13.5313 5.58024 123.946 
188 13.5312 1.116 125.524 
189 9.66511 1.116 125.524 
190 17.3974 5.58024 123.946 
191 15.4644 2.23212 123.946 
192 11.5981 4.46411 125.524 
193 11.5983 2.23212 126.313 
194 17.3974 5.58024 126.313 
195 15.4644 2.23212 126.313 
196 13.5313 5.58024 126.313 
197 11.5983 2.23212 128.681 
198 23.1964 13.3925 127.102 
199 1.93304 3.34812 127.102 
200 13.5313 5.58024 128.681 
201 17.3974 5.58024 128.681 
202 13.5313 3.34812 127.102 
203 19.3304 13.3925 127.102 
204 15.4644 2.23212 128.681 
205 23.1964 13.3925 129.47 
206 13.5313 3.34812 129.47 
207 19.3304 13.3925 129.47 
208 1.93304 3.34812 129.47 
209 7.73215 13.3925 131.837 
210 15.4642 4.46411 130.259 
211 13.5312 1.116 130.259 
212 1.93304 3.34812 131.837 
213 13.5313 3.34812 131.837 
214 9.66511 1.116 130.259 
215 11.5981 4.46411 130.259 
216 19.3304 13.3925 131.837 
217 15.4642 4.46411 132.626 
218 9.66511 1.116 132.626 
219 11.5981 4.46411 132.626 
220 13.5312 1.116 132.626 
221 15.4642 4.46411 134.994 
222 11.5983 2.23212 133.416 
223 13.5313 5.58024 133.416 
224 13.5312 1.116 134.994 
225 9.66511 1.116 134.994 
226 17.3974 5.58024 133.416 
227 15.4644 2.23212 133.416 
228 11.5981 4.46411 134.994 
229 11.5983 2.23212 135.783 
230 17.3974 5.58024 135.783 
231 15.4644 2.23212 135.783 
232 13.5313 5.58024 135.783 
233 11.5983 2.23212 138.15 
234 7.73215 13.3925 136.572 
235 1.93304 3.34812 136.572 
236 13.5313 5.58024 138.15 
237 17.3974 5.58024 138.15 
238 13.5313 3.34812 136.572 
239 19.3304 13.3925 136.572 
240 15.4644 2.23212 138.15 
241 7.73215 13.3925 138.94 
242 13.5313 3.34812 138.94 
243 19.3304 13.3925 138.94 
244 1.93304 3.34812 138.94 
245 7.73215 13.3925 141.307 
246 15.4642 4.46411 139.729 
247 13.5312 1.116 139.729 
248 1.93304 3.34812 141.307 
249 13.5313 3.34812 141.307 
250 9.66511 1.116 139.729 
251 11.5981 4.46411 139.729 
252 19.3304 13.3925 141.307 
253 11.5982 6.69624 120 
254 17.3973 10.0444 120 
255 15.4643 6.69624 120 
256 13.5313 10.0444 120 
257 19.3304 6.69624 122.367 
258 19.3303 11.1604 120.789 
259 17.3973 7.81223 120.789 
260 5.79911 10.0444 122.367 
261 17.3973 10.0444 122.367 
262 13.5312 7.81223 120.789 
263 15.4642 11.1604 120.789 
264 15.4643 6.69624 122.367 
265 19.3303 11.1604 123.157 
266 13.5312 7.81223 123.157 
267 15.4642 11.1604 123.157 
268 17.3973 7.81223 123.157 
269 19.3303 11.1604 125.524 
270 15.4644 8.92836 123.946 
271 17.3974 12.2765 123.946 
272 17.3973 7.81223 125.524 
273 13.5312 7.81223 125.524 
274 21.2635 12.2765 123.946 
275 19.3305 8.92836 123.946 
276 15.4642 11.1604 125.524 
277 15.4644 8.92836 126.313 
278 21.2635 12.2765 126.313 
279 19.3305 8.92836 126.313 
280 17.3974 12.2765 126.313 
281 15.4644 8.92836 128.681 
282 19.3304 6.69624 127.102 
283 5.79911 10.0444 127.102 
284 17.3974 12.2765 128.681 
285 21.2635 12.2765 128.681 
286 17.3973 10.0444 127.102 
287 15.4643 6.69624 127.102 
288 19.3305 8.92836 128.681 
289 19.3304 6.69624 129.47 
290 17.3973 10.0444 129.47 
291 15.4643 6.69624 129.47 
292 5.79911 10.0444 129.47 
293 19.3304 6.69624 131.837 
294 19.3303 11.1604 130.259 
295 17.3973 7.81223 130.259 
296 5.79911 10.0444 131.837 
297 17.3973 10.0444 131.837 
298 13.5312 7.81223 130.259 
299 15.4642 11.1604 130.259 
300 15.4643 6.69624 131.837 
301 19.3303 11.1604 132.626 
302 13.5312 7.81223 132.626 
303 15.4642 11.1604 132.626 
304 17.3973 7.81223 132.626 
305 19.3303 11.1604 134.994 
306 15.4644 8.92836 133.416 
307 17.3974 12.2765 133.416 
308 17.3973 7.81223 134.994 
309 13.5312 7.81223 134.994 
310 21.2635 12.2765 133.416 
311 19.3305 8.92836 133.416 
312 15.4642 11.1604 134.994 
313 15.4644 8.92836 135.783 
314 21.2635 12.2765 135.783 
315 19.3305 8.92836 135.783 
316 17.3974 12.2765 135.783 
317 15.4644 8.92836 138.15 
318 19.3304 6.69624 136.572 
319 5.79911 10.0444 136.572 
320 17.3974 12.2765 138.15 
321 21.2635 12.2765 138.15 
322 17.3973 10.0444 136.572 
323 15.4643 6.69624 136.572 
324 19.3305 8.92836 138.15 
325 3.86607 6.69624 138.94 
326 17.3973 10.0444 138.94 
327 15.4643 6.69624 138.94 
328 21.2634 10.0444 138.94 
329 3.86607 6.69624 141.307 
330 19.3303 11.1604 139.729 
331 17.3973 7.81223 139.729 
332 21.2634 10.0444 141.307 
333 17.3973 10.0444 141.307 
334 13.5312 7.81223 139.729 
335 15.4642 11.1604 139.729 
336 15.4643 6.69624 141.307 
ITEM: TIMESTEP
27
ITEM: NUMBER OF ATOMS
336
ITEM: BOX BOUNDS xy xz yz pp pp pp
0.0000000000000000e+00 2.3196449999999999e+01 7.7321499999999999e+00
0.0000000000000000e+00 1.3392476651743999e+01 0.0000000000000000e+00
0.0000000000000000e+00 2.6130700000000002e+02 0.0000000000000000e+00
ITEM: ATOMS id xu yu zu 
1 0.0264089 0.0152521 120.141 
2 5.81033 3.35466 120.141 
3 3.85342 0.0128214 120.129 
4 17.4022 3.33081 120.129 
5 15.4559 13.3846 122.209 
6 7.8261 4.5184 119.76 
7 5.95742 1.035 119.722 
8 9.65422 3.33889 122.211 
9 5.78657 3.34091 122.21 
10 2.09408 1.209 119.753 
11 3.87504 4.64175 119.722 
12 11.5862 13.3905 122.21 
13 7.72098 4.45779 123.279 
14 1.92217 1.11003 123.289 
15 3.85746 4.45669 123.284 
16 5.78844 1.11223 123.284 
17 7.72531 4.4602 125.604 
18 3.85768 2.22783 123.993 
19 5.79303 5.57404 123.986 
20 5.79829 1.11163 125.601 
21 1.92753 1.11342 125.602 
22 9.65516 5.57441 123.975 
23 7.72377 2.22997 123.986 
24 3.86122 4.46535 125.601 
25 3.86693 2.23186 126.42 
26 9.6521 5.57276 126.39 
27 7.73239 2.2297 126.418 
28 5.79673 5.58106 126.419 
29 3.86514 2.23373 128.79 
30 15.4589 13.3958 127.203 
31 9.67 3.34233 127.193 
32 5.81562 5.57494 128.789 
33 9.66724 5.58138 128.763 
34 5.79224 3.34741 127.197 
35 11.5951 13.3939 127.197 
36 7.73566 2.24873 128.789 
37 15.4729 13.3918 129.567 
38 5.8083 3.34763 129.585 
39 11.6074 13.3969 129.578 
40 9.67473 3.36487 129.585 
41 15.4691 13.3995 131.942 
42 7.75886 4.48134 130.377 
43 5.8115 1.11363 130.366 
44 9.67441 3.33817 131.945 
45 5.8102 3.35734 131.937 
46 1.93754 1.11603 130.365 
47 3.87075 4.4756 130.367 
48 11.6027 13.3872 131.937 
49 7.75591 4.47822 132.738 
50 1.94104 1.12146 132.746 
51 3.87245 4.46451 132.747 
52 5.80266 1.12129 132.748 
53 7.78985 4.49766 135.073 
54 3.87483 2.23702 133.515 
55 5.80958 5.58334 133.526 
56 5.81811 1.12635 135.1 
57 1.95517 1.12826 135.1 
58 9.81272 5.66544 133.411 
59 7.73964 2.23981 133.526 
60 3.8845 4.47542 135.1 
61 3.8892 2.24554 135.909 
62 9.69476 5.59732 135.897 
63 7.75935 2.24926 135.909 
64 5.82742 5.59512 135.909 
65 3.86243 2.22996 138.207 
66 15.4882 13.4027 136.664 
67 9.68463 3.35793 136.663 
68 5.7973 5.58126 138.219 
69 9.67913 5.58819 138.216 
70 5.83019 3.36584 136.651 
71 11.6207 13.3918 136.653 
72 7.72991 2.23145 138.218 
73 15.5367 13.4357 139.151 
74 5.87306 3.39063 139.145 
75 11.6686 13.4336 139.143 
76 9.73677 3.3931 139.147 
77 15.3798 13.3501 141.007 
78 7.6398 4.4108 139.416 
79 5.69557 1.06415 139.422 
80 9.58542 3.30188 141 
81 5.73221 3.3095 141.002 
82 1.83799 1.06119 139.434 
83 3.76934 4.40046 139.422 
84 11.524 13.3367 141.001 
85 3.83928 6.6386 120.126 
86 9.60856 10.0383 120.12 
87 7.66666 6.66114 120.103 
88 5.74804 10.0555 120.119 
89 11.5873 6.68992 122.207 
90 11.7716 11.0695 119.762 
91 9.81344 7.73109 119.759 
92 13.5182 10.0354 122.206 
93 9.65033 10.0403 122.205 
94 5.99105 7.74388 119.766 
95 7.8904 11.0775 119.731 
96 7.71864 6.69135 122.211 
97 11.5845 11.1596 123.266 
98 5.78416 7.80801 123.274 
99 7.71383 11.1552 123.28 
100 9.64619 7.80813 123.265 
101 11.5941 11.1618 125.603 
102 7.72286 8.9242 123.987 
103 9.65783 12.2713 123.988 
104 9.66305 7.80744 125.596 
105 5.78849 7.80794 125.6 
106 13.5194 12.2716 123.982 
107 11.5877 8.92604 123.974 
108 7.72385 11.162 125.603 
109 7.73099 8.92641 126.42 
110 13.5304 12.2708 126.416 
111 11.5937 8.9392 126.388 
112 9.66103 12.2722 126.42 
113 7.77623 8.90658 128.821 
114 11.5975 6.69583 127.2 
115 13.5364 10.0402 127.192 
116 9.67743 12.2648 128.792 
117 13.522 12.2668 128.789 
118 9.65798 10.0424 127.193 
119 7.72929 6.70328 127.193 
120 11.5996 8.92994 128.765 
121 11.6009 6.69809 129.496 
122 9.67911 10.0359 129.585 
123 7.75077 6.6954 129.584 
124 13.524 10.0337 129.585 
125 11.5982 6.69624 201.837 
126 11.6028 11.1383 130.379 
127 9.80805 7.73559 130.473 
128 13.5529 10.0534 131.945 
129 9.65911 10.0541 131.944 
130 5.79899 7.81701 130.361 
131 7.72956 11.1667 130.364 
132 7.72817 6.70972 131.945 
133 11.6062 11.1494 132.737 
134 5.79094 7.81336 132.745 
135 7.73425 11.1805 132.745 
136 9.61761 7.85077 132.765 
137 11.6168 11.1253 135.076 
138 7.74545 8.93162 133.526 
139 9.67478 12.2817 133.527 
140 9.6735 7.82724 135.104 
141 5.81539 7.82592 135.103 
142 13.5375 12.2827 133.525 
143 11.6102 8.78406 133.416 
144 7.74668 11.1695 135.105 
145 7.74824 8.94708 135.924 
146 13.5544 12.2826 135.909 
147 11.6174 8.92789 135.898 
148 9.69143 12.2843 135.909 
149 7.73139 8.9323 138.222 
150 11.6188 6.7081 136.646 
151 13.5521 10.0583 136.663 
152 9.66646 12.2742 138.219 
153 13.5273 12.2848 138.219 
154 9.68449 10.06 136.662 
155 7.75024 6.70778 136.662 
156 11.6027 8.91731 138.214 
157 11.6722 6.73903 139.146 
158 9.73884 10.0843 139.148 
159 7.8069 6.73503 139.147 
160 13.6014 10.0839 139.148 
161 11.5256 6.65449 141.004 
162 11.4997 11.0998 139.413 
163 9.57192 7.75135 139.434 
164 13.4494 10.0005 141.002 
165 9.59001 10.0045 141 
166 5.69705 7.75287 139.422 
167 7.63069 11.0982 139.422 
168 7.6522 6.65024 141 
169 7.6689 0.00557981 120.125 
170 13.4977 3.30211 120.12 
171 11.5823 -0.0498081 120.119 
172 9.60201 3.30898 120.103 
173 7.72194 13.3866 122.21 
174 15.4723 4.65977 119.762 
175 13.5386 1.29452 119.731 
176 1.92526 3.33871 122.21 
177 13.5203 3.33727 122.205 
178 9.70194 1.31646 119.766 
179 11.602 4.63314 119.759 
180 19.316 13.3815 122.207 
181 15.4567 4.45273 123.266 
182 9.65415 1.10525 123.274 
183 11.5851 4.4498 123.265 
184 13.5176 1.10276 123.28 
185 15.4635 4.45995 125.603 
186 11.59 2.22611 123.987 
187 13.524 5.57225 123.974 
188 13.5285 1.10815 125.603 
189 9.65623 1.1094 125.599 
190 17.3872 5.57227 123.982 
191 15.4556 2.22848 123.987 
192 11.593 4.46476 125.596 
193 11.5963 2.2324 126.42 
194 17.3927 5.58151 126.416 
195 15.4593 2.23131 126.419 
196 13.5386 5.57101 126.388 
197 11.6014 2.28137 128.821 
198 23.2039 13.3961 127.202 
199 1.933 3.34485 127.197 
200 13.5333 5.5807 128.765 
201 17.3845 5.57705 128.789 
202 13.526 3.34319 127.193 
203 19.3245 13.4106 127.204 
204 15.4605 2.24889 128.792 
205 23.1991 13.3981 129.571 
206 13.5308 3.36524 129.585 
207 19.3361 13.4012 129.584 
208 1.94284 3.35481 129.577 
209 7.74536 13.3994 131.942 
210 15.4475 4.47937 130.378 
211 13.5351 1.11077 130.364 
212 1.93085 3.35446 131.936 
213 13.5367 3.33806 131.944 
214 9.66919 1.11362 130.361 
215 11.6033 4.62634 130.473 
216 19.3317 13.4025 131.944 
217 15.4588 4.47665 132.736 
218 9.66194 1.10846 132.745 
219 11.6077 4.40382 132.765 
220 13.5495 1.1079 132.746 
221 15.4432 4.4978 135.076 
222 11.6076 2.24182 133.526 
223 13.4123 5.66274 133.416 
224 13.5464 1.12407 135.105 
225 9.6851 1.12335 135.103 
226 17.4059 5.58257 133.525 
227 15.4737 2.23769 133.527 
228 11.6153 4.46388 135.104 
229 11.6228 2.23664 135.925 
230 17.4144 5.59711 135.909 
231 15.4843 2.25085 135.909 
232 13.5405 5.59706 135.898 
233 11.5941 2.23366 138.217 
234 7.7516 13.4037 136.664 
235 1.94363 3.3679 136.653 
236 13.5239 5.58956 138.214 
237 17.4026 5.57258 138.219 
238 13.5544 3.35717 136.662 
239 19.3499 13.4041 136.672 
240 15.463 2.23428 138.219 
241 7.8053 13.435 139.15 
242 13.6028 3.39144 139.148 
243 19.3999 13.4334 139.16 
244 2.00382 3.38851 139.143 
245 7.65059 13.3456 141.007 
246 15.3626 4.40911 139.413 
247 13.4333 1.05532 139.427 
248 1.84765 3.31172 141.001 
249 13.4592 3.30293 141 
250 9.56458 1.05634 139.423 
251 11.4984 4.41468 139.434 
252 19.2481 13.3556 141.016 
253 11.4891 6.63321 120.101 
254 17.2951 9.98532 120.106 
255 15.3601 6.64836 120.093 
256 13.4377 9.97805 120.093 
257 19.3193 6.69289 122.209 
258 19.5001 11.2584 119.791 
259 17.4054 7.98607 119.763 
260 5.78241 10.0373 122.207 
261 17.3849 10.0372 122.211 
262 13.6566 7.88466 119.798 
263 15.6189 11.0805 119.763 
264 15.45 6.68939 122.206 
265 19.309 11.148 123.28 
266 13.5144 7.80252 123.271 
267 15.4442 11.15 123.267 
268 17.3783 7.80005 123.267 
269 19.3254 11.1575 125.612 
270 15.4506 8.92036 123.981 
271 17.392 12.2673 123.983 
272 17.3945 7.80703 125.598 
273 13.5215 7.80663 125.594 
274 21.2491 12.2674 123.985 
275 19.3197 8.92825 123.983 
276 15.4584 11.1604 125.598 
277 15.4557 8.92275 126.417 
278 21.2589 12.275 126.418 
279 19.3233 8.92647 126.416 
280 17.3922 12.2711 126.416 
281 15.4237 8.90483 128.822 
282 19.3304 6.68962 127.203 
283 5.81166 10.03 127.204 
284 17.4098 12.2691 128.779 
285 21.2584 12.2708 128.777 
286 17.3765 10.0325 127.201 
287 15.4635 6.70262 127.192 
288 19.3303 8.94243 128.779 
289 19.3364 6.70202 129.567 
290 17.396 10.0426 129.583 
291 15.4517 6.6953 129.585 
292 5.81006 10.0451 129.583 
293 19.3385 6.69655 131.942 
294 19.3404 11.1662 130.384 
295 17.4079 7.8168 130.362 
296 5.80837 10.0405 131.944 
297 17.3999 10.0459 131.94 
298 13.3955 7.7339 130.476 
299 15.4734 11.1669 130.362 
300 15.4829 6.71052 131.945 
301 19.3384 11.165 132.749 
302 13.5997 7.85183 132.766 
303 15.4785 11.1829 132.745 
304 17.424 7.8132 132.745 
305 19.353 11.1734 135.108 
306 15.4726 8.93312 133.525 
307 17.4078 12.2768 133.523 
308 17.4145 7.82502 135.105 
309 13.5574 7.82735 135.104 
310 21.2708 12.2807 133.52 
311 19.3359 8.93727 133.523 
312 15.4839 11.1689 135.105 
313 15.4924 8.94448 135.923 
314 21.2888 12.2911 135.92 
315 19.3536 8.94115 135.921 
316 17.4201 12.2902 135.921 
317 15.4679 8.93038 138.226 
318 19.3512 6.71191 136.664 
319 5.81924 10.0555 136.672 
320 17.4005 12.2756 138.231 
321 21.2654 12.2775 138.233 
322 17.4206 10.0578 136.669 
323 15.4868 6.70729 136.663 
324 19.3312 8.93152 138.231 
325 3.93968 6.73724 139.151 
326 17.4684 10.0853 139.16 
327 15.5337 6.73716 139.148 
328 21.3336 10.0837 139.16 
329 3.78721 6.6442 141.006 
330 19.2309 11.1029 139.445 
331 17.2954 7.75707 139.427 
332 21.1903 9.99166 141.016 
333 17.3097 9.99376 141.013 
334 13.4306 7.75419 139.424 
335 15.3656 11.0997 139.427 
336 15.3854 6.64728 141.002 
