ITEM: TIMESTEP
0
ITEM: NUMBER OF ATOMS
336
ITEM: BOX BOUNDS xy xz yz pp pp pp
0.0000000000000000e+00 2.3196449999999999e+01 7.7321499999999999e+00
0.0000000000000000e+00 1.3392476651743999e+01 0.0000000000000000e+00
0.0000000000000000e+00 1.8130699999999999e+02 0.0000000000000000e+00
ITEM: ATOMS id xu yu zu 
1 7.73215 13.3925 79.9999 
2 5.79911 3.34812 79.9999 
3 11.5982 13.3925 79.9999 
4 1.93304 3.34812 79.9999 
5 15.4643 13.3925 82.3678 
6 7.73207 4.46411 80.7886 
7 5.79904 1.116 80.7886 
8 9.66519 3.34812 82.3678 
9 5.79911 3.34812 82.3678 
10 1.93296 1.116 80.7886 
11 3.866 4.46411 80.7886 
12 11.5982 13.3925 82.3678 
13 7.73207 4.46411 83.1565 
14 1.93296 1.116 83.1565 
15 3.866 4.46411 83.1565 
16 5.79904 1.116 83.1565 
17 7.73207 4.46411 85.5243 
18 3.86615 2.23212 83.9451 
19 5.79919 5.58024 83.9451 
20 5.79904 1.116 85.5243 
21 1.93296 1.116 85.5243 
22 9.66526 5.58024 83.9451 
23 7.73223 2.23212 83.9451 
24 3.866 4.46411 85.5243 
25 3.86615 2.23212 86.313 
26 9.66526 5.58024 86.313 
27 7.73223 2.23212 86.313 
28 5.79919 5.58024 86.313 
29 3.86615 2.23212 88.6809 
30 15.4643 13.3925 87.1017 
31 9.66519 3.34812 87.1017 
32 5.79919 5.58024 88.6809 
33 9.66526 5.58024 88.6809 
34 5.79911 3.34812 87.1017 
35 11.5982 13.3925 87.1017 
36 7.73223 2.23212 88.6809 
37 15.4643 13.3925 89.4696 
38 5.79911 3.34812 89.4696 
39 11.5982 13.3925 89.4696 
40 9.66519 3.34812 89.4696 
41 7.73215 0 91.8374 
42 7.73207 4.46411 90.2583 
43 5.79904 1.116 90.2583 
44 9.66519 3.34812 91.8374 
45 5.79911 3.34812 91.8374 
46 1.93296 1.116 90.2583 
47 3.866 4.46411 90.2583 
48 3.86607 0 91.8374 
49 7.73207 4.46411 92.6261 
50 1.93296 1.116 92.6261 
51 3.866 4.46411 92.6261 
52 5.79904 1.116 92.6261 
53 7.73207 4.46411 94.994 
54 3.86615 2.23212 93.4148 
55 5.79919 5.58024 93.4148 
56 5.79904 1.116 94.994 
57 1.93296 1.116 94.994 
58 9.66526 5.58024 93.4148 
59 7.73223 2.23212 93.4148 
60 3.866 4.46411 94.994 
61 3.86615 2.23212 95.7827 
62 9.66526 5.58024 95.7827 
63 7.73223 2.23212 95.7827 
64 5.79919 5.58024 95.7827 
65 3.86615 2.23212 98.1505 
66 15.4643 13.3925 96.5714 
67 9.66519 3.34812 96.5714 
68 5.79919 5.58024 98.1505 
69 9.66526 5.58024 98.1505 
70 5.79911 3.34812 96.5714 
71 11.5982 13.3925 96.5714 
72 7.73223 2.23212 98.1505 
73 15.4643 13.3925 98.9392 
74 5.79911 3.34812 98.9392 
75 11.5982 13.3925 98.9392 
76 9.66519 3.34812 98.9392 
77 15.4643 13.3925 101.307 
78 7.73207 4.46411 99.7279 
79 5.79904 1.116 99.7279 
80 9.66519 3.34812 101.307 
81 5.79911 3.34812 101.307 
82 1.93296 1.116 99.7279 
83 3.866 4.46411 99.7279 
84 11.5982 13.3925 101.307 
85 3.86607 6.69624 79.9999 
86 9.66519 10.0444 79.9999 
87 7.73215 6.69624 79.9999 
88 5.79911 10.0444 79.9999 
89 11.5982 6.69624 82.3678 
90 11.5981 11.1604 80.7886 
91 9.66511 7.81223 80.7886 
92 13.5313 10.0444 82.3678 
93 9.66519 10.0444 82.3678 
94 5.79904 7.81223 80.7886 
95 7.73207 11.1604 80.7886 
96 7.73215 6.69624 82.3678 
97 11.5981 11.1604 83.1565 
98 5.79904 7.81223 83.1565 
99 7.73207 11.1604 83.1565 
100 9.66511 7.81223 83.1565 
101 11.5981 11.1604 85.5243 
102 7.73223 8.92836 83.9451 
103 9.66526 12.2765 83.9451 
104 9.66511 7.81223 85.5243 
105 5.79904 7.81223 85.5243 
106 13.5313 12.2765 83.9451 
107 11.5983 8.92836 83.9451 
108 7.73207 11.1604 85.5243 
109 7.73223 8.92836 86.313 
110 13.5313 12.2765 86.313 
111 11.5983 8.92836 86.313 
112 9.66526 12.2765 86.313 
113 7.73223 8.92836 88.6809 
114 11.5982 6.69624 87.1017 
115 13.5313 10.0444 87.1017 
116 9.66526 12.2765 88.6809 
117 13.5313 12.2765 88.6809 
118 9.66519 10.0444 87.1017 
119 7.73215 6.69624 87.1017 
120 11.5983 8.92836 88.6809 
121 11.5982 6.69624 89.4696 
122 9.66519 10.0444 89.4696 
123 7.73215 6.69624 89.4696 
124 13.5313 10.0444 89.4696 
125 11.5982 6.69624 136.837 
126 11.5981 11.1604 90.2583 
127 9.66511 7.81223 90.2583 
128 13.5313 10.0444 91.8374 
129 9.66519 10.0444 91.8374 
130 5.79904 7.81223 90.2583 
131 7.73207 11.1604 90.2583 
132 7.73215 6.69624 91.8374 
133 11.5981 11.1604 92.6261 
134 5.79904 7.81223 92.6261 
135 7.73207 11.1604 92.6261 
136 9.66511 7.81223 92.6261 
137 11.5981 11.1604 94.994 
138 7.73223 8.92836 93.4148 
139 9.66526 12.2765 93.4148 
140 9.66511 7.81223 94.994 
141 5.79904 7.81223 94.994 
142 13.5313 12.2765 93.4148 
143 11.5983 8.92836 93.4148 
144 7.73207 11.1604 94.994 
145 7.73223 8.92836 95.7827 
146 13.5313 12.2765 95.7827 
147 11.5983 8.92836 95.7827 
148 9.66526 12.2765 95.7827 
149 7.73223 8.92836 98.1505 
150 11.5982 6.69624 96.5714 
151 13.5313 10.0444 96.5714 
152 9.66526 12.2765 98.1505 
153 13.5313 12.2765 98.1505 
154 9.66519 10.0444 96.5714 
155 7.73215 6.69624 96.5714 
156 11.5983 8.92836 98.1505 
157 11.5982 6.69624 98.9392 
158 9.66519 10.0444 98.9392 
159 7.73215 6.69624 98.9392 
160 13.5313 10.0444 98.9392 
161 11.5982 6.69624 101.307 
162 11.5981 11.1604 99.7279 
163 9.66511 7.81223 99.7279 
164 13.5313 10.0444 101.307 
165 9.66519 10.0444 101.307 
166 5.79904 7.81223 99.7279 
167 7.73207 11.1604 99.7279 
168 7.73215 6.69624 101.307 
169 15.4643 13.3925 79.9999 
170 13.5313 3.34812 79.9999 
171 19.3304 13.3925 79.9999 
172 9.66519 3.34812 79.9999 
173 7.73215 13.3925 82.3678 
174 15.4642 4.46411 80.7886 
175 13.5312 1.116 80.7886 
176 1.93304 3.34812 82.3678 
177 13.5313 3.34812 82.3678 
178 9.66511 1.116 80.7886 
179 11.5981 4.46411 80.7886 
180 19.3304 13.3925 82.3678 
181 15.4642 4.46411 83.1565 
182 9.66511 1.116 83.1565 
183 11.5981 4.46411 83.1565 
184 13.5312 1.116 83.1565 
185 15.4642 4.46411 85.5243 
186 11.5983 2.23212 83.9451 
187 13.5313 5.58024 83.9451 
188 13.5312 1.116 85.5243 
189 9.66511 1.116 85.5243 
190 17.3974 5.58024 83.9451 
191 15.4644 2.23212 83.9451 
192 11.5981 4.46411 85.5243 
193 11.5983 2.23212 86.313 
194 17.3974 5.58024 86.313 
195 15.4644 2.23212 86.313 
196 13.5313 5.58024 86.313 
197 11.5983 2.23212 88.6809 
198 7.73215 13.3925 87.1017 
199 1.93304 3.34812 87.1017 
200 13.5313 5.58024 88.6809 
201 17.3974 5.58024 88.6809 
202 13.5313 3.34812 87.1017 
203 19.3304 13.3925 87.1017 
204 15.4644 2.23212 88.6809 
205 7.73215 13.3925 89.4696 
206 13.5313 3.34812 89.4696 
207 19.3304 13.3925 89.4696 
208 1.93304 3.34812 89.4696 
209 0 0 91.8374 
210 15.4642 4.46411 90.2583 
211 13.5312 1.116 90.2583 
212 1.93304 3.34812 91.8374 
213 13.5313 3.34812 91.8374 
214 9.66511 1.116 90.2583 
215 11.5981 4.46411 90.2583 
216 11.5982 0 91.8374 
217 15.4642 4.46411 92.6261 
218 9.66511 1.116 92.6261 
219 11.5981 4.46411 92.6261 
220 13.5312 1.116 92.6261 
221 15.4642 4.46411 94.994 
222 11.5983 2.23212 93.4148 
223 13.5313 5.58024 93.4148 
224 13.5312 1.116 94.994 
225 9.66511 1.116 94.994 
226 17.3974 5.58024 93.4148 
227 15.4644 2.23212 93.4148 
228 11.5981 4.46411 94.994 
229 11.5983 2.23212 95.7827 
230 17.3974 5.58024 95.7827 
231 15.4644 2.23212 95.7827 
232 13.5313 5.58024 95.7827 
233 11.5983 2.23212 98.1505 
234 23.1964 13.3925 96.5714 
235 1.93304 3.34812 96.5714 
236 13.5313 5.58024 98.1505 
237 17.3974 5.58024 98.1505 
238 13.5313 3.34812 96.5714 
239 19.3304 13.3925 96.5714 
240 15.4644 2.23212 98.1505 
241 23.1964 13.3925 98.9392 
242 13.5313 3.34812 98.9392 
243 19.3304 13.3925 98.9392 
244 1.93304 3.34812 98.9392 
245 23.1964 13.3925 101.307 
246 15.4642 4.46411 99.7279 
247 13.5312 1.116 99.7279 
248 1.93304 3.34812 101.307 
249 13.5313 3.34812 101.307 
250 9.66511 1.116 99.7279 
251 11.5981 4.46411 99.7279 
252 19.3304 13.3925 101.307 
253 11.5982 6.69624 79.9999 
254 17.3973 10.0444 79.9999 
255 15.4643 6.69624 79.9999 
256 13.5313 10.0444 79.9999 
257 3.86607 6.69624 82.3678 
258 19.3303 11.1604 80.7886 
259 17.3973 7.81223 80.7886 
260 5.79911 10.0444 82.3678 
261 17.3973 10.0444 82.3678 
262 13.5312 7.81223 80.7886 
263 15.4642 11.1604 80.7886 
264 15.4643 6.69624 82.3678 
265 19.3303 11.1604 83.1565 
266 13.5312 7.81223 83.1565 
267 15.4642 11.1604 83.1565 
268 17.3973 7.81223 83.1565 
269 19.3303 11.1604 85.5243 
270 15.4644 8.92836 83.9451 
271 17.3974 12.2765 83.9451 
272 17.3973 7.81223 85.5243 
273 13.5312 7.81223 85.5243 
274 21.2635 12.2765 83.9451 
275 19.3305 8.92836 83.9451 
276 15.4642 11.1604 85.5243 
277 15.4644 8.92836 86.313 
278 21.2635 12.2765 86.313 
279 19.3305 8.92836 86.313 
280 17.3974 12.2765 86.313 
281 15.4644 8.92836 88.6809 
282 3.86607 6.69624 87.1017 
283 21.2634 10.0444 87.1017 
284 17.3974 12.2765 88.6809 
285 21.2635 12.2765 88.6809 
286 17.3973 10.0444 87.1017 
287 15.4643 6.69624 87.1017 
288 19.3305 8.92836 88.6809 
289 3.86607 6.69624 89.4696 
290 17.3973 10.0444 89.4696 
291 15.4643 6.69624 89.4696 
292 21.2634 10.0444 89.4696 
293 3.86607 6.69624 91.8374 
294 19.3303 11.1604 90.2583 
295 17.3973 7.81223 90.2583 
296 5.79911 10.0444 91.8374 
297 17.3973 10.0444 91.8374 
298 13.5312 7.81223 90.2583 
299 15.4642 11.1604 90.2583 
300 15.4643 6.69624 91.8374 
301 19.3303 11.1604 92.6261 
302 13.5312 7.81223 92.6261 
303 15.4642 11.1604 92.6261 
304 17.3973 7.81223 92.6261 
305 19.3303 11.1604 94.994 
306 15.4644 8.92836 93.4148 
307 17.3974 12.2765 93.4148 
308 17.3973 7.81223 94.994 
309 13.5312 7.81223 94.994 
310 21.2635 12.2765 93.4148 
311 19.3305 8.92836 93.4148 
312 15.4642 11.1604 94.994 
313 15.4644 8.92836 95.7827 
314 21.2635 12.2765 95.7827 
315 19.3305 8.92836 95.7827 
316 17.3974 12.2765 95.7827 
317 15.4644 8.92836 98.1505 
318 3.86607 6.69624 96.5714 
319 5.79911 10.0444 96.5714 
320 17.3974 12.2765 98.1505 
321 21.2635 12.2765 98.1505 
322 17.3973 10.0444 96.5714 
323 15.4643 6.69624 96.5714 
324 19.3305 8.92836 98.1505 
325 3.86607 6.69624 98.9392 
326 17.3973 10.0444 98.9392 
327 15.4643 6.69624 98.9392 
328 5.79911 10.0444 98.9392 
329 3.86607 6.69624 101.307 
330 19.3303 11.1604 99.7279 
331 17.3973 7.81223 99.7279 
332 5.79911 10.0444 101.307 
333 17.3973 10.0444 101.307 
334 13.5312 7.81223 99.7279 
335 15.4642 11.1604 99.7279 
336 15.4643 6.69624 101.307 
ITEM: TIMESTEP
28
ITEM: NUMBER OF ATOMS
336
ITEM: BOX BOUNDS xy xz yz pp pp pp
0.0000000000000000e+00 2.3196449999999999e+01 7.7321499999999999e+00
0.0000000000000000e+00 1.3392476651743999e+01 0.0000000000000000e+00
0.0000000000000000e+00 1.8130699999999999e+02 0.0000000000000000e+00
ITEM: ATOMS id xu yu zu 
1 7.76401 13.4109 80.1428 
2 5.8099 3.35435 80.1431 
3 11.5842 13.4048 80.1286 
4 1.93666 3.3298 80.1286 
5 15.4547 13.3843 82.2105 
6 7.83462 4.52332 79.7664 
7 5.96178 1.03214 79.7254 
8 9.65341 3.33934 82.213 
9 5.7859 3.34049 82.2127 
10 2.10098 1.213 79.7587 
11 3.87475 4.64699 79.7254 
12 11.5859 13.3894 82.2118 
13 7.72073 4.45756 83.2802 
14 1.92157 1.10942 83.2901 
15 3.85672 4.45635 83.287 
16 5.78767 1.11184 83.287 
17 7.72558 4.46037 85.6021 
18 3.8572 2.22695 83.9919 
19 5.79218 5.57387 83.9859 
20 5.79731 1.11177 85.5999 
21 1.92758 1.11289 85.6001 
22 9.65449 5.57402 83.9744 
23 7.7232 2.22924 83.9859 
24 3.86147 4.46473 85.5999 
25 3.86692 2.23257 86.4183 
26 9.65266 5.57297 86.3896 
27 7.73327 2.22939 86.4186 
28 5.79735 5.58251 86.4186 
29 3.86594 2.23201 88.7796 
30 15.4578 13.3949 87.1995 
31 9.66964 3.34172 87.1915 
32 5.81455 5.57578 88.788 
33 9.66672 5.58108 88.7616 
34 5.79818 3.34758 87.1944 
35 11.5962 13.3915 87.1945 
36 7.73605 2.24765 88.788 
37 15.4716 13.3931 89.5648 
38 5.80072 3.34904 89.5819 
39 11.605 13.3969 89.5804 
40 9.67286 3.3638 89.5822 
41 7.73625 0.00619252 91.9411 
42 7.75975 4.4801 90.3726 
43 5.8104 1.11531 90.3656 
44 9.67404 3.33851 91.9436 
45 5.81571 3.35771 91.9361 
46 1.93678 1.11813 90.3638 
47 3.87109 4.4743 90.3656 
48 3.87162 -0.00696908 91.9356 
49 7.75638 4.47815 92.7352 
50 1.94046 1.12033 92.7467 
51 3.87282 4.46431 92.7474 
52 5.80261 1.12181 92.7474 
53 7.78939 4.4972 95.0719 
54 3.87484 2.23714 93.5133 
55 5.809 5.58401 93.5252 
56 5.81745 1.12665 95.0997 
57 1.95428 1.12829 95.0995 
58 9.81303 5.66555 93.4098 
59 7.74039 2.23874 93.5252 
60 3.88444 4.47473 95.0997 
61 3.88941 2.24555 95.9084 
62 9.69438 5.59705 95.8966 
63 7.75893 2.24837 95.9094 
64 5.82661 5.59525 95.9094 
65 3.86541 2.23169 98.2109 
66 15.4878 13.4033 96.6628 
67 9.68398 3.35898 96.6614 
68 5.79703 5.58138 98.2187 
69 9.67748 5.5873 98.2133 
70 5.83073 3.36637 96.6512 
71 11.6206 13.392 96.6515 
72 7.73213 2.22968 98.2187 
73 15.5355 13.4363 99.1515 
74 5.87529 3.3921 99.1454 
75 11.6634 13.4294 99.1436 
76 9.73068 3.38979 99.1448 
77 15.3795 13.3508 101.005 
78 7.64235 4.41231 99.4207 
79 5.69489 1.06909 99.4213 
80 9.58698 3.30167 101.002 
81 5.73059 3.30856 101.001 
82 1.83615 1.0601 99.4327 
83 3.7733 4.39738 99.4213 
84 11.5252 13.3382 101.001 
85 3.8431 6.63901 80.1252 
86 9.60728 10.0384 80.12 
87 7.66878 6.65872 80.1052 
88 5.74924 10.0522 80.1202 
89 11.5863 6.68938 82.2084 
90 11.7688 11.0685 79.7647 
91 9.81611 7.72613 79.7634 
92 13.5177 10.0357 82.2085 
93 9.64924 10.04 82.2061 
94 5.9909 7.73942 79.7695 
95 7.89662 11.0744 79.7347 
96 7.71866 6.69042 82.213 
97 11.5832 11.1589 83.2669 
98 5.78371 7.8082 83.2738 
99 7.71377 11.1552 83.2815 
100 9.64587 7.80819 83.2667 
101 11.5939 11.1614 85.601 
102 7.72239 8.92427 83.9861 
103 9.65642 12.2701 83.9867 
104 9.66297 7.80724 85.5944 
105 5.78899 7.80863 85.5982 
106 13.519 12.2716 83.982 
107 11.587 8.9257 83.9734 
108 7.72403 11.1618 85.6009 
109 7.73159 8.92546 86.4191 
110 13.5295 12.2708 86.4165 
111 11.5929 8.93918 86.3873 
112 9.66267 12.2734 86.4193 
113 7.77613 8.90553 88.8184 
114 11.5973 6.69569 87.1988 
115 13.5363 10.0408 87.19 
116 9.67679 12.2645 88.7894 
117 13.522 12.2674 88.7879 
118 9.65795 10.0421 87.191 
119 7.72884 6.7033 87.1915 
120 11.5996 8.9293 88.7622 
121 11.6009 6.6978 89.4925 
122 9.67876 10.0352 89.5823 
123 7.74957 6.69504 89.5822 
124 13.5242 10.0345 89.5822 
125 11.5982 6.69624 136.837 
126 11.6022 11.1364 90.3728 
127 9.80768 7.73543 90.471 
128 13.5524 10.054 91.9435 
129 9.65944 10.0536 91.9435 
130 5.79859 7.8175 90.3609 
131 7.73014 11.166 90.3622 
132 7.72825 6.70871 91.9436 
133 11.6064 11.1485 92.736 
134 5.79188 7.81363 92.7445 
135 7.73356 11.1796 92.7451 
136 9.61726 7.85058 92.763 
137 11.6158 11.1249 95.0746 
138 7.74429 8.93126 93.5246 
139 9.67456 12.2818 93.5257 
140 9.67279 7.82721 95.1033 
141 5.81514 7.82551 95.1029 
142 13.5381 12.2825 93.525 
143 11.6105 8.78361 93.4151 
144 7.74667 11.1694 95.1042 
145 7.74741 8.94656 95.9239 
146 13.5539 12.2826 95.9088 
147 11.6175 8.92761 95.898 
148 9.69059 12.2844 95.9095 
149 7.73632 8.92493 98.2223 
150 11.6185 6.70796 96.6443 
151 13.5531 10.0583 96.6628 
152 9.6667 12.2781 98.2218 
153 13.5299 12.2817 98.2191 
154 9.68481 10.0595 96.6616 
155 7.75095 6.70708 96.6614 
156 11.6008 8.92114 98.2129 
157 11.6734 6.73964 99.1472 
158 9.73823 10.085 99.1452 
159 7.80098 6.73212 99.1448 
160 13.5957 10.081 99.1463 
161 11.526 6.65453 101.002 
162 11.5007 11.0995 99.4148 
163 9.57033 7.75698 99.4341 
164 13.4499 10.001 101.004 
165 9.59088 10.0045 101.001 
166 5.70457 7.75066 99.428 
167 7.63853 11.1008 99.4323 
168 7.65282 6.65174 101.002 
169 15.4033 13.4012 80.1252 
170 13.4971 3.30095 80.12 
171 19.3122 13.3454 80.1202 
172 9.60101 3.312 80.1052 
173 7.72156 13.3864 82.2121 
174 15.47 4.65784 79.7647 
175 13.5391 1.30146 79.7347 
176 1.92422 3.33904 82.2118 
177 13.5196 3.33646 82.2061 
178 9.69799 1.31856 79.7695 
179 11.5991 4.63794 79.7634 
180 19.3151 13.3821 82.2093 
181 15.4556 4.45191 83.2669 
182 9.65396 1.10474 83.2738 
183 11.585 4.44947 83.2667 
184 13.5176 1.10272 83.2815 
185 15.463 4.45994 85.601 
186 11.5898 2.22565 83.9861 
187 13.5234 5.57179 83.9734 
188 13.5284 1.10833 85.6009 
189 9.65696 1.1091 85.5982 
190 17.387 5.57203 83.982 
191 15.4544 2.22768 83.9867 
192 11.5928 4.46476 85.5944 
193 11.5955 2.23303 86.4191 
194 17.3915 5.58146 86.4165 
195 15.4605 2.2314 86.4193 
196 13.538 5.57012 86.3873 
197 11.6005 2.28156 88.8184 
198 7.73865 13.3962 87.2 
199 1.93118 3.34688 87.1945 
200 13.5328 5.58087 88.7622 
201 17.3849 5.57666 88.7879 
202 13.5257 3.34298 87.191 
203 19.3253 13.4104 87.2017 
204 15.4598 2.24811 88.7894 
205 7.73653 13.3951 89.5663 
206 13.5301 3.36446 89.5823 
207 19.3359 13.4002 89.582 
208 1.94029 3.35181 89.5804 
209 0.0117499 0.00676681 91.9409 
210 15.4455 4.47962 90.3728 
211 13.5351 1.1115 90.3622 
212 1.92978 3.3564 91.9356 
213 13.5364 3.3385 91.9435 
214 9.66945 1.11297 90.3609 
215 11.6029 4.62599 90.471 
216 11.6017 0.0101896 91.9428 
217 15.4581 4.47715 92.736 
218 9.66274 1.1091 92.7445 
219 11.6074 4.4035 92.763 
220 13.5486 1.10767 92.7452 
221 15.4423 4.49716 95.0746 
222 11.6068 2.24112 93.5246 
223 13.4121 5.66317 93.4151 
224 13.5463 1.1241 95.1042 
225 9.68466 1.1233 95.1029 
226 17.406 5.58306 93.525 
227 15.4737 2.2375 93.5257 
228 11.615 4.46328 95.1033 
229 11.6217 2.23617 95.9239 
230 17.414 5.59672 95.9088 
231 15.4839 2.25008 95.9095 
232 13.5403 5.59727 95.898 
233 11.5974 2.23738 98.2223 
234 23.2165 13.404 96.6627 
235 1.9438 3.36772 96.6515 
236 13.5263 5.58598 98.2129 
237 17.4012 5.57637 98.2191 
238 13.5542 3.35755 96.6616 
239 19.3514 13.4027 96.671 
240 15.4665 2.23258 98.2218 
241 23.2704 13.4352 99.1523 
242 13.603 3.39106 99.1452 
243 19.3956 13.4302 99.159 
244 1.99763 3.38613 99.1436 
245 23.1157 13.3458 101.006 
246 15.3628 4.41017 99.4148 
247 13.4329 1.06474 99.4323 
248 1.84951 3.31207 101.001 
249 13.4596 3.30371 101.001 
250 9.56456 1.06497 99.428 
251 11.5029 4.40966 99.4341 
252 19.2483 13.356 101.017 
253 11.4901 6.63382 80.1022 
254 17.2917 9.98335 80.1062 
255 15.3591 6.65684 80.095 
256 13.4446 9.97298 80.095 
257 3.85422 6.69204 82.2105 
258 19.5144 11.2666 79.798 
259 17.4049 7.99428 79.7693 
260 5.7825 10.0363 82.2093 
261 17.3849 10.0372 82.2123 
262 13.6648 7.88936 79.8062 
263 15.6257 11.0759 79.7693 
264 15.45 6.68883 82.2085 
265 19.308 11.1475 83.2809 
266 13.5133 7.80193 83.2695 
267 15.4436 11.1502 83.2681 
268 17.3782 7.79945 83.2681 
269 19.3234 11.1563 85.6093 
270 15.4497 8.9199 83.9815 
271 17.3911 12.267 83.9828 
272 17.3937 7.80726 85.5965 
273 13.5205 7.80608 85.5929 
274 21.2479 12.2675 83.9855 
275 19.3191 8.92765 83.9828 
276 15.4582 11.1598 85.5965 
277 15.4558 8.92343 86.4161 
278 21.2584 12.2735 86.418 
279 19.3241 8.92647 86.4155 
280 17.3926 12.272 86.4155 
281 15.4228 8.90435 88.8185 
282 3.86488 6.68937 87.1995 
283 21.2764 10.031 87.2017 
284 17.4095 12.2702 88.7774 
285 21.2572 12.2728 88.7756 
286 17.3768 10.0325 87.1997 
287 15.4637 6.70237 87.19 
288 19.3311 8.94196 88.7774 
289 3.87025 6.70222 89.5648 
290 17.396 10.0436 89.5818 
291 15.4522 6.69509 89.5822 
292 21.2729 10.0453 89.582 
293 3.87348 6.69669 91.9411 
294 19.3394 11.1656 90.3825 
295 17.4079 7.81775 90.3609 
296 5.80965 10.0422 91.9428 
297 17.399 10.0453 91.9407 
298 13.3961 7.73427 90.4738 
299 15.4743 11.1668 90.3609 
300 15.4832 6.70971 91.9435 
301 19.3368 11.1641 92.7484 
302 13.5997 7.85177 92.7647 
303 15.4778 11.1818 92.7441 
304 17.4226 7.81323 92.7441 
305 19.3516 11.1727 95.1075 
306 15.4719 8.93273 93.5243 
307 17.4083 12.2782 93.5218 
308 17.4145 7.82469 95.1041 
309 13.5571 7.82722 95.1039 
310 21.2698 12.2801 93.5198 
311 19.3374 8.93695 93.5218 
312 15.4836 11.1691 95.1041 
313 15.4935 8.94517 95.9232 
314 21.2882 12.2908 95.92 
315 19.3533 8.94104 95.921 
316 17.4198 12.2899 95.921 
317 15.4664 8.92952 98.2236 
318 3.88723 6.71118 96.6628 
319 5.81851 10.0574 96.671 
320 17.4005 12.2692 98.2265 
321 21.2594 12.2741 98.2229 
322 17.4215 10.0583 96.6693 
323 15.4873 6.70816 96.6628 
324 19.3257 8.93472 98.2265 
325 3.93959 6.73601 99.1515 
326 17.4711 10.087 99.1596 
327 15.5282 6.73369 99.1463 
328 5.86438 10.082 99.159 
329 3.78763 6.64364 101.005 
330 19.2328 11.104 99.4486 
331 17.2996 7.75744 99.4293 
332 5.72647 9.99157 101.017 
333 17.3106 9.9943 101.014 
334 13.4345 7.75643 99.4292 
335 15.368 11.1032 99.4293 
336 15.3861 6.64749 101.004 
