ITEM: TIMESTEP
0
ITEM: NUMBER OF ATOMS
336
ITEM: BOX BOUNDS xy xz yz pp pp pp
0.0000000000000000e+00 2.3196449999999999e+01 7.7321499999999999e+00
0.0000000000000000e+00 1.3392476651743999e+01 0.0000000000000000e+00
0.0000000000000000e+00 2.6130700000000002e+02 0.0000000000000000e+00
ITEM: ATOMS id xu yu zu 
1 0 0 120 
2 5.79911 3.34812 120 
3 3.86607 0 120 
4 17.3973 3.34812 120 
5 15.4643 13.3925 122.367 
6 7.73207 4.46411 120.789 
7 5.79904 1.116 120.789 
8 9.66519 3.34812 122.367 
9 5.79911 3.34812 122.367 
10 1.93296 1.116 120.789 
11 3.866 4.46411 120.789 
12 11.5982 13.3925 122.367 
13 7.73207 4.46411 123.157 
14 1.93296 1.116 123.157 
15 3.866 4.46411 123.157 
16 5.79904 1.116 123.157 
17 7.73207 4.46411 125.524 
18 3.86615 2.23212 123.946 
19 5.79919 5.58024 123.946 
20 5.79904 1.116 125.524 
21 1.93296 1.116 125.524 
22 9.66526 5.58024 123.946 
23 7.73223 2.23212 123.946 
24 3.866 4.46411 125.524 
25 3.86615 2.23212 126.313 
26 9.66526 5.58024 126.313 
27 7.73223 2.23212 126.313 
28 5.79919 5.58024 126.313 
29 3.86615 2.23212 128.681 
30 15.4643 13.3925 127.102 
31 9.66519 3.34812 127.102 
32 5.79919 5.58024 128.681 
33 9.66526 5.58024 128.681 
34 5.79911 3.34812 127.102 
35 11.5982 13.3925 127.102 
36 7.73223 2.23212 128.681 
37 15.4643 13.3925 129.47 
38 5.79911 3.34812 129.47 
39 11.5982 13.3925 129.47 
40 9.66519 3.34812 129.47 
41 15.4643 13.3925 131.837 
42 7.73207 4.46411 130.259 
43 5.79904 1.116 130.259 
44 9.66519 3.34812 131.837 
45 5.79911 3.34812 131.837 
46 1.93296 1.116 130.259 
47 3.866 4.46411 130.259 
48 11.5982 13.3925 131.837 
49 7.73207 4.46411 132.626 
50 1.93296 1.116 132.626 
51 3.866 4.46411 132.626 
52 5.79904 1.116 132.626 
53 7.73207 4.46411 134.994 
54 3.86615 2.23212 133.416 
55 5.79919 5.58024 133.416 
56 5.79904 1.116 134.994 
57 1.93296 1.116 134.994 
58 9.66526 5.58024 133.416 
59 7.73223 2.23212 133.416 
60 3.866 4.46411 134.994 
61 3.86615 2.23212 135.783 
62 9.66526 5.58024 135.783 
63 7.73223 2.23212 135.783 
64 5.79919 5.58024 135.783 
65 3.86615 2.23212 138.15 
66 15.4643 13.3925 136.572 
67 9.66519 3.34812 136.572 
68 5.79919 5.58024 138.15 
69 9.66526 5.58024 138.15 
70 5.79911 3.34812 136.572 
71 11.5982 13.3925 136.572 
72 7.73223 2.23212 138.15 
73 15.4643 13.3925 138.94 
74 5.79911 3.34812 138.94 
75 11.5982 13.3925 138.94 
76 9.66519 3.34812 138.94 
77 15.4643 13.3925 141.307 
78 7.73207 4.46411 139.729 
79 5.79904 1.116 139.729 
80 9.66519 3.34812 141.307 
81 5.79911 3.34812 141.307 
82 1.93296 1.116 139.729 
83 3.866 4.46411 139.729 
84 11.5982 13.3925 141.307 
85 3.86607 6.69624 120 
86 9.66519 10.0444 120 
87 7.73215 6.69624 120 
88 5.79911 10.0444 120 
89 11.5982 6.69624 122.367 
90 11.5981 11.1604 120.789 
91 9.66511 7.81223 120.789 
92 13.5313 10.0444 122.367 
93 9.66519 10.0444 122.367 
94 5.79904 7.81223 120.789 
95 7.73207 11.1604 120.789 
96 7.73215 6.69624 122.367 
97 11.5981 11.1604 123.157 
98 5.79904 7.81223 123.157 
99 7.73207 11.1604 123.157 
100 9.66511 7.81223 123.157 
101 11.5981 11.1604 125.524 
102 7.73223 8.92836 123.946 
103 9.66526 12.2765 123.946 
104 9.66511 7.81223 125.524 
105 5.79904 7.81223 125.524 
106 13.5313 12.2765 123.946 
107 11.5983 8.92836 123.946 
108 7.73207 11.1604 125.524 
109 7.73223 8.92836 126.313 
110 13.5313 12.2765 126.313 
111 11.5983 8.92836 126.313 
112 9.66526 12.2765 126.313 
113 7.73223 8.92836 128.681 
114 11.5982 6.69624 127.102 
115 13.5313 10.0444 127.102 
116 9.66526 12.2765 128.681 
117 13.5313 12.2765 128.681 
118 9.66519 10.0444 127.102 
119 7.73215 6.69624 127.102 
120 11.5983 8.92836 128.681 
121 11.5982 6.69624 129.47 
122 9.66519 10.0444 129.47 
123 7.73215 6.69624 129.47 
124 13.5313 10.0444 129.47 
125 11.5982 6.69624 201.837 
126 11.5981 11.1604 130.259 
127 9.66511 7.81223 130.259 
128 13.5313 10.0444 131.837 
129 9.66519 10.0444 131.837 
130 5.79904 7.81223 130.259 
131 7.73207 11.1604 130.259 
132 7.73215 6.69624 131.837 
133 11.5981 11.1604 132.626 
134 5.79904 7.81223 132.626 
135 7.73207 11.1604 132.626 
136 9.66511 7.81223 132.626 
137 11.5981 11.1604 134.994 
138 7.73223 8.92836 133.416 
139 9.66526 12.2765 133.416 
140 9.66511 7.81223 134.994 
141 5.79904 7.81223 134.994 
142 13.5313 12.2765 133.416 
143 11.5983 8.92836 133.416 
144 7.73207 11.1604 134.994 
145 7.73223 8.92836 135.783 
146 13.5313 12.2765 135.783 
147 11.5983 8.92836 135.783 
148 9.66526 12.2765 135.783 
149 7.73223 8.92836 138.15 
150 11.5982 6.69624 136.572 
151 13.5313 10.0444 136.572 
152 9.66526 12.2765 138.15 
153 13.5313 12.2765 138.15 
154 9.66519 10.0444 136.572 
155 7.73215 6.69624 136.572 
156 11.5983 8.92836 138.15 
157 11.5982 6.69624 138.94 
158 9.66519 10.0444 138.94 
159 7.73215 6.69624 138.94 
160 13.5313 10.0444 138.94 
161 11.5982 6.69624 141.307 
162 11.5981 11.1604 139.729 
163 9.66511 7.81223 139.729 
164 13.5313 10.0444 141.307 
165 9.66519 10.0444 141.307 
166 5.79904 7.81223 139.729 
167 7.73207 11.1604 139.729 
168 7.73215 6.69624 141.307 
169 7.73215 0 120 
170 13.5313 3.34812 120 
171 11.5982 0 120 
172 9.66519 3.34812 120 
173 7.73215 13.3925 122.367 
174 15.4642 4.46411 120.789 
175 13.5312 1.116 120.789 
176 1.93304 3.34812 122.367 
177 13.5313 3.34812 122.367 
178 9.66511 1.116 120.789 
179 11.5981 4.46411 120.789 
180 19.3304 13.3925 122.367 
181 15.4642 4.46411 123.157 
182 9.66511 1.116 123.157 
183 11.5981 4.46411 123.157 
184 13.5312 1.116 123.157 
185 15.4642 4.46411 125.524 
186 11.5983 2.23212 123.946 
187 13.5313 5.58024 123.946 
188 13.5312 1.116 125.524 
189 9.66511 1.116 125.524 
190 17.3974 5.58024 123.946 
191 15.4644 2.23212 123.946 
192 11.5981 4.46411 125.524 
193 11.5983 2.23212 126.313 
194 17.3974 5.58024 126.313 
195 15.4644 2.23212 126.313 
196 13.5313 5.58024 126.313 
197 11.5983 2.23212 128.681 
198 23.1964 13.3925 127.102 
199 1.93304 3.34812 127.102 
200 13.5313 5.58024 128.681 
201 17.3974 5.58024 128.681 
202 13.5313 3.34812 127.102 
203 19.3304 13.3925 127.102 
204 15.4644 2.23212 128.681 
205 23.1964 13.3925 129.47 
206 13.5313 3.34812 129.47 
207 19.3304 13.3925 129.47 
208 1.93304 3.34812 129.47 
209 7.73215 13.3925 131.837 
210 15.4642 4.46411 130.259 
211 13.5312 1.116 130.259 
212 1.93304 3.34812 131.837 
213 13.5313 3.34812 131.837 
214 9.66511 1.116 130.259 
215 11.5981 4.46411 130.259 
216 19.3304 13.3925 131.837 
217 15.4642 4.46411 132.626 
218 9.66511 1.116 132.626 
219 11.5981 4.46411 132.626 
220 13.5312 1.116 132.626 
221 15.4642 4.46411 134.994 
222 11.5983 2.23212 133.416 
223 13.5313 5.58024 133.416 
224 13.5312 1.116 134.994 
225 9.66511 1.116 134.994 
226 17.3974 5.58024 133.416 
227 15.4644 2.23212 133.416 
228 11.5981 4.46411 134.994 
229 11.5983 2.23212 135.783 
230 17.3974 5.58024 135.783 
231 15.4644 2.23212 135.783 
232 13.5313 5.58024 135.783 
233 11.5983 2.23212 138.15 
234 7.73215 13.3925 136.572 
235 1.93304 3.34812 136.572 
236 13.5313 5.58024 138.15 
237 17.3974 5.58024 138.15 
238 13.5313 3.34812 136.572 
239 19.3304 13.3925 136.572 
240 15.4644 2.23212 138.15 
241 7.73215 13.3925 138.94 
242 13.5313 3.34812 138.94 
243 19.3304 13.3925 138.94 
244 1.93304 3.34812 138.94 
245 7.73215 13.3925 141.307 
246 15.4642 4.46411 139.729 
247 13.5312 1.116 139.729 
248 1.93304 3.34812 141.307 
249 13.5313 3.34812 141.307 
250 9.66511 1.116 139.729 
251 11.5981 4.46411 139.729 
252 19.3304 13.3925 141.307 
253 11.5982 6.69624 120 
254 17.3973 10.0444 120 
255 15.4643 6.69624 120 
256 13.5313 10.0444 120 
257 19.3304 6.69624 122.367 
258 19.3303 11.1604 120.789 
259 17.3973 7.81223 120.789 
260 5.79911 10.0444 122.367 
261 17.3973 10.0444 122.367 
262 13.5312 7.81223 120.789 
263 15.4642 11.1604 120.789 
264 15.4643 6.69624 122.367 
265 19.3303 11.1604 123.157 
266 13.5312 7.81223 123.157 
267 15.4642 11.1604 123.157 
268 17.3973 7.81223 123.157 
269 19.3303 11.1604 125.524 
270 15.4644 8.92836 123.946 
271 17.3974 12.2765 123.946 
272 17.3973 7.81223 125.524 
273 13.5312 7.81223 125.524 
274 21.2635 12.2765 123.946 
275 19.3305 8.92836 123.946 
276 15.4642 11.1604 125.524 
277 15.4644 8.92836 126.313 
278 21.2635 12.2765 126.313 
279 19.3305 8.92836 126.313 
280 17.3974 12.2765 126.313 
281 15.4644 8.92836 128.681 
282 19.3304 6.69624 127.102 
283 5.79911 10.0444 127.102 
284 17.3974 12.2765 128.681 
285 21.2635 12.2765 128.681 
286 17.3973 10.0444 127.102 
287 15.4643 6.69624 127.102 
288 19.3305 8.92836 128.681 
289 19.3304 6.69624 129.47 
290 17.3973 10.0444 129.47 
291 15.4643 6.69624 129.47 
292 5.79911 10.0444 129.47 
293 19.3304 6.69624 131.837 
294 19.3303 11.1604 130.259 
295 17.3973 7.81223 130.259 
296 5.79911 10.0444 131.837 
297 17.3973 10.0444 131.837 
298 13.5312 7.81223 130.259 
299 15.4642 11.1604 130.259 
300 15.4643 6.69624 131.837 
301 19.3303 11.1604 132.626 
302 13.5312 7.81223 132.626 
303 15.4642 11.1604 132.626 
304 17.3973 7.81223 132.626 
305 19.3303 11.1604 134.994 
306 15.4644 8.92836 133.416 
307 17.3974 12.2765 133.416 
308 17.3973 7.81223 134.994 
309 13.5312 7.81223 134.994 
310 21.2635 12.2765 133.416 
311 19.3305 8.92836 133.416 
312 15.4642 11.1604 134.994 
313 15.4644 8.92836 135.783 
314 21.2635 12.2765 135.783 
315 19.3305 8.92836 135.783 
316 17.3974 12.2765 135.783 
317 15.4644 8.92836 138.15 
318 19.3304 6.69624 136.572 
319 5.79911 10.0444 136.572 
320 17.3974 12.2765 138.15 
321 21.2635 12.2765 138.15 
322 17.3973 10.0444 136.572 
323 15.4643 6.69624 136.572 
324 19.3305 8.92836 138.15 
325 3.86607 6.69624 138.94 
326 17.3973 10.0444 138.94 
327 15.4643 6.69624 138.94 
328 21.2634 10.0444 138.94 
329 3.86607 6.69624 141.307 
330 19.3303 11.1604 139.729 
331 17.3973 7.81223 139.729 
332 21.2634 10.0444 141.307 
333 17.3973 10.0444 141.307 
334 13.5312 7.81223 139.729 
335 15.4642 11.1604 139.729 
336 15.4643 6.69624 141.307 
ITEM: TIMESTEP
5
ITEM: NUMBER OF ATOMS
336
ITEM: BOX BOUNDS xy xz yz pp pp pp
0.0000000000000000e+00 2.3196449999999999e+01 7.7321499999999999e+00
0.0000000000000000e+00 1.3392476651743999e+01 0.0000000000000000e+00
0.0000000000000000e+00 2.6130700000000002e+02 0.0000000000000000e+00
ITEM: ATOMS id xu yu zu 
1 -6.53995e-05 -3.77584e-05 120.164 
2 5.79903 3.34807 120.164 
3 3.86597 -9.04944e-05 120.164 
4 17.3972 3.34807 120.164 
5 15.4664 13.3938 122.346 
6 7.73282 4.46455 120.617 
7 5.79975 1.11639 120.616 
8 9.66748 3.34935 122.346 
9 5.80128 3.34937 122.346 
10 1.93369 1.11642 120.616 
11 3.86669 4.46454 120.616 
12 11.6004 13.3937 122.346 
13 7.72593 4.46057 123.172 
14 1.92711 1.11262 123.172 
15 3.86025 4.46072 123.172 
16 5.79322 1.11272 123.172 
17 7.72984 4.46283 125.527 
18 3.86728 2.23278 123.949 
19 5.80027 5.58104 123.949 
20 5.79746 1.11479 125.528 
21 1.93089 1.1148 125.528 
22 9.66625 5.58081 123.948 
23 7.73345 2.23266 123.949 
24 3.86417 4.46335 125.528 
25 3.87345 2.23634 126.304 
26 9.66602 5.58068 126.298 
27 7.74012 2.23689 126.305 
28 5.80727 5.5847 126.305 
29 3.86511 2.23152 128.677 
30 15.4603 13.3918 127.106 
31 9.6622 3.34782 127.107 
32 5.79674 5.57838 128.678 
33 9.66389 5.57945 128.683 
34 5.79475 3.3456 127.106 
35 11.5956 13.393 127.106 
36 7.72939 2.23093 128.678 
37 15.4685 13.39 129.476 
38 5.80568 3.35191 129.473 
39 11.5982 13.3849 129.473 
40 9.67137 3.34353 129.467 
41 15.4655 13.395 131.833 
42 7.73715 4.46704 130.261 
43 5.79758 1.11819 130.258 
44 9.66735 3.35312 131.834 
45 5.80068 3.34902 131.833 
46 1.93627 1.11791 130.258 
47 3.86717 4.46176 130.258 
48 11.6001 13.3953 131.833 
49 7.7287 4.46217 132.635 
50 1.92524 1.11154 132.633 
51 3.85815 4.46029 132.633 
52 5.7918 1.11111 132.633 
53 7.73319 4.46476 134.996 
54 3.86777 2.23306 133.412 
55 5.80096 5.58118 133.412 
56 5.79742 1.11562 134.999 
57 1.93185 1.11535 134.998 
58 9.72311 5.61364 133.369 
59 7.73392 2.23319 133.412 
60 3.86486 4.4629 134.999 
61 3.87319 2.23619 135.801 
62 9.66669 5.58107 135.796 
63 7.73925 2.23625 135.802 
64 5.80627 5.58426 135.802 
65 3.86504 2.23148 138.167 
66 15.4605 13.3908 136.577 
67 9.6621 3.34597 136.576 
68 5.79756 5.57961 138.167 
69 9.66656 5.58099 138.167 
70 5.79503 3.34576 136.577 
71 11.5945 13.3914 136.577 
72 7.73087 2.23103 138.167 
73 15.4675 13.3934 139.249 
74 5.80173 3.34963 139.248 
75 11.6012 13.3937 139.248 
76 9.66765 3.3505 139.247 
77 15.4628 13.392 141.069 
78 7.73176 4.46394 139.629 
79 5.79879 1.11579 139.629 
80 9.66399 3.3472 141.068 
81 5.79779 3.34736 141.069 
82 1.93254 1.11575 139.629 
83 3.8657 4.46401 139.629 
84 11.5967 13.3919 141.069 
85 3.86597 6.69612 120.164 
86 9.66512 10.0441 120.164 
87 7.73218 6.69621 120.164 
88 5.799 10.0443 120.164 
89 11.6004 6.69752 122.346 
90 11.5989 11.1607 120.617 
91 9.66585 7.81264 120.617 
92 13.5335 10.0454 122.346 
93 9.66746 10.0454 122.346 
94 5.79976 7.81265 120.616 
95 7.73279 11.1607 120.616 
96 7.73437 6.69761 122.346 
97 11.5922 11.1574 123.172 
98 5.79305 7.80888 123.172 
99 7.72612 11.1573 123.172 
100 9.6594 7.80851 123.173 
101 11.5963 11.1596 125.528 
102 7.73316 8.92922 123.948 
103 9.66628 12.2774 123.949 
104 9.66327 7.81123 125.528 
105 5.79676 7.81113 125.527 
106 13.5324 12.2773 123.949 
107 11.5995 8.92941 123.948 
108 7.72991 11.1597 125.527 
109 7.73939 8.93285 126.303 
110 13.5392 12.2799 126.304 
111 11.6054 8.93987 126.298 
112 9.67318 12.2798 126.305 
113 7.73533 8.92536 128.68 
114 11.5959 6.69488 127.117 
115 13.5274 10.0426 127.106 
116 9.66454 12.278 128.678 
117 13.5297 12.278 128.678 
118 9.6639 10.0427 127.106 
119 7.7304 6.6938 127.107 
120 11.5973 8.92809 128.683 
121 11.5981 6.69617 129.385 
122 9.65813 10.0414 129.467 
123 7.73127 6.70389 129.467 
124 13.5383 10.0416 129.467 
125 11.5982 6.69624 201.837 
126 11.5994 11.156 130.261 
127 9.72194 7.77952 130.307 
128 13.5294 10.0441 131.833 
129 9.67017 10.0444 131.833 
130 5.79961 7.81139 130.259 
131 7.73414 11.1619 130.259 
132 7.73757 6.69561 131.834 
133 11.5923 11.1545 132.636 
134 5.78259 7.80608 132.632 
135 7.72136 11.1653 132.632 
136 9.59473 7.85043 132.656 
137 11.597 11.1565 134.996 
138 7.74245 8.92221 133.409 
139 9.66665 12.2771 133.412 
140 9.66539 7.80945 134.997 
141 5.79748 7.81136 134.998 
142 13.5329 12.2773 133.412 
143 11.5992 8.8637 133.369 
144 7.73076 11.1597 134.998 
145 7.73477 8.93494 135.811 
146 13.5386 12.2802 135.801 
147 11.6034 8.93462 135.797 
148 9.67254 12.2799 135.801 
149 7.73137 8.92746 138.167 
150 11.5946 6.69414 136.574 
151 13.5281 10.0418 136.576 
152 9.66384 12.2765 138.167 
153 13.5303 12.2764 138.167 
154 9.66147 10.0423 136.576 
155 7.72874 6.69464 136.576 
156 11.5982 8.92706 138.167 
157 11.601 6.69782 139.247 
158 9.66843 10.0454 139.247 
159 7.73544 6.69718 139.247 
160 13.5336 10.0458 139.247 
161 11.5969 6.69546 141.068 
162 11.5979 11.1603 139.629 
163 9.66473 7.81216 139.63 
164 13.5299 10.0435 141.068 
165 9.66379 10.0437 141.068 
166 5.79875 7.81209 139.629 
167 7.73181 11.1602 139.629 
168 7.73076 6.69566 141.068 
169 7.732 -3.54671e-05 120.164 
170 13.531 3.34816 120.164 
171 11.5981 -6.88743e-05 120.164 
172 9.66518 3.34816 120.164 
173 7.73434 13.3937 122.346 
174 15.4649 4.46455 120.617 
175 13.5319 1.11643 120.616 
176 1.93518 3.34941 122.346 
177 13.5333 3.34957 122.346 
178 9.66583 1.11641 120.616 
179 11.5989 4.46455 120.617 
180 19.3325 13.3938 122.346 
181 15.4587 4.46045 123.172 
182 9.65921 1.11249 123.172 
183 11.5921 4.46103 123.173 
184 13.5256 1.11234 123.172 
185 15.4626 4.46292 125.528 
186 11.5995 2.23251 123.948 
187 13.5328 5.58072 123.948 
188 13.5295 1.11447 125.527 
189 9.66302 1.11457 125.527 
190 17.3987 5.58074 123.949 
191 15.4657 2.23255 123.949 
192 11.5964 4.46303 125.528 
193 11.6058 2.23608 126.303 
194 17.4043 5.58532 126.304 
195 15.4712 2.23733 126.305 
196 13.5449 5.58065 126.298 
197 11.5973 2.23631 128.68 
198 23.1951 13.3917 127.106 
199 1.93216 3.34559 127.106 
200 13.5306 5.5795 128.683 
201 17.3979 5.57807 128.678 
202 13.5292 3.34784 127.106 
203 19.3278 13.389 127.106 
204 15.4654 2.23073 128.678 
205 23.1923 13.3901 129.476 
206 13.5252 3.34347 129.467 
207 19.3304 13.3984 129.474 
208 1.92644 3.35192 129.473 
209 7.73616 13.3948 131.833 
210 15.4611 4.46736 130.261 
211 13.5335 1.11704 130.259 
212 1.93639 3.34831 131.833 
213 13.5338 3.35243 131.833 
214 9.66467 1.11691 130.259 
215 11.5982 4.52969 130.307 
216 19.3331 13.3925 131.833 
217 15.4563 4.46194 132.636 
218 9.65156 1.10483 132.632 
219 11.596 4.38407 132.656 
220 13.5301 1.10426 132.632 
221 15.4603 4.46506 134.996 
222 11.5981 2.24405 133.409 
223 13.4758 5.61338 133.369 
224 13.53 1.11517 134.998 
225 9.66358 1.11509 134.998 
226 17.3989 5.5812 133.412 
227 15.4656 2.23299 133.412 
228 11.5959 4.46575 134.997 
229 11.6053 2.23104 135.811 
230 17.4042 5.58469 135.801 
231 15.471 2.23673 135.801 
232 13.5393 5.58154 135.797 
233 11.5971 2.23184 138.167 
234 7.72882 13.3906 136.577 
235 1.93024 3.34544 136.577 
236 13.5302 5.58084 138.167 
237 17.3969 5.5794 138.167 
238 13.5276 3.34595 136.576 
239 19.3271 13.3895 136.577 
240 15.4637 2.23089 138.167 
241 7.73462 13.3939 139.249 
242 13.5338 3.35038 139.247 
243 19.3329 13.3941 139.248 
244 1.93553 3.35008 139.248 
245 7.73078 13.3917 141.069 
246 15.464 4.46389 139.629 
247 13.5309 1.11586 139.629 
248 1.93181 3.34712 141.069 
249 13.53 3.34725 141.068 
250 9.66485 1.11582 139.629 
251 11.5979 4.46382 139.63 
252 19.3292 13.3915 141.069 
253 11.5981 6.69618 120.164 
254 17.3972 10.0443 120.164 
255 15.464 6.69621 120.164 
256 13.5311 10.0442 120.164 
257 19.3325 6.69744 122.346 
258 19.331 11.1608 120.616 
259 17.398 7.81267 120.616 
260 5.80133 10.0455 122.346 
261 17.3994 10.0456 122.346 
262 13.5318 7.81262 120.617 
263 15.465 11.1607 120.616 
264 15.4663 6.69762 122.346 
265 19.3245 11.157 123.172 
266 13.5252 7.80879 123.173 
267 15.4584 11.1573 123.172 
268 17.3917 7.80873 123.172 
269 19.3284 11.1593 125.528 
270 15.4657 8.92913 123.949 
271 17.3986 12.277 123.949 
272 17.3957 7.81125 125.527 
273 13.5295 7.81123 125.528 
274 21.2646 12.2772 123.949 
275 19.3315 8.9291 123.949 
276 15.4626 11.1595 125.527 
277 15.4723 8.93291 126.303 
278 21.2712 12.2809 126.304 
279 19.3381 8.9323 126.304 
280 17.4047 12.2812 126.304 
281 15.4591 8.92533 128.68 
282 19.3278 6.69308 127.106 
283 5.79484 10.0438 127.106 
284 17.3982 12.2747 128.676 
285 21.2607 12.2749 128.676 
286 17.3964 10.0438 127.106 
287 15.4608 6.69377 127.106 
288 19.3293 8.92988 128.676 
289 19.3303 6.70107 129.476 
290 17.3922 10.0414 129.474 
291 15.4654 6.70368 129.467 
292 5.80424 10.0414 129.474 
293 19.3331 6.69598 131.833 
294 19.3313 11.161 130.256 
295 17.3984 7.8116 130.259 
296 5.80049 10.0467 131.833 
297 17.4014 10.0467 131.833 
298 13.4741 7.77929 130.307 
299 15.4643 11.1617 130.259 
300 15.4632 6.69475 131.833 
301 19.3223 11.1558 132.632 
302 13.5966 7.85001 132.656 
303 15.4598 11.1659 132.633 
304 17.3998 7.80567 132.633 
305 19.3291 11.1597 134.998 
306 15.458 8.92468 133.411 
307 17.3996 12.2771 133.413 
308 17.3959 7.81182 134.998 
309 13.5265 7.80952 134.996 
310 21.265 12.2773 133.412 
311 19.3321 8.92997 133.413 
312 15.4632 11.1594 134.998 
313 15.4742 8.93401 135.811 
314 21.2712 12.2809 135.801 
315 19.3379 8.93077 135.8 
316 17.4032 12.2817 135.8 
317 15.4634 8.92779 138.167 
318 19.327 6.69379 136.577 
319 5.79488 10.0431 136.577 
320 17.3964 12.2756 138.167 
321 21.2624 12.2759 138.167 
322 17.3943 10.0426 136.577 
323 15.4605 6.69478 136.576 
324 19.3292 8.92794 138.167 
325 3.86849 6.69859 139.249 
326 17.4004 10.0461 139.248 
327 15.4667 6.69753 139.247 
328 21.2661 10.0457 139.248 
329 3.86489 6.69523 141.069 
330 19.33 11.1602 139.629 
331 17.397 7.81201 139.629 
332 21.262 10.0438 141.069 
333 17.3959 10.0436 141.069 
334 13.531 7.81212 139.63 
335 15.4639 11.1602 139.629 
336 15.4628 6.6955 141.068 
