ITEM: TIMESTEP
0
ITEM: NUMBER OF ATOMS
336
ITEM: BOX BOUNDS xy xz yz pp pp pp
0.0000000000000000e+00 2.5129462906297999e+01 7.7321424350000001e+00
-1.1160386247630001e+00 1.3392463548779000e+01 1.9330356012979999e+00
0.0000000000000000e+00 1.4520516084427399e+02 -1.1160386247630001e+00
ITEM: ATOMS id xu yu zu
97 5.79911 1.11604 124.687
305 3.86607 1.4878e-08 125.476
306 5.79911 3.34812 125.476
321 3.86607 2.23208 123.898
322 5.79911 5.58019 123.898
98 7.73214 4.46415 124.687
101 9.66518 1.11604 124.687
102 11.5982 4.46415 124.687
309 7.73214 1.4878e-08 125.476
310 9.66518 3.34812 125.476
313 11.5982 1.4878e-08 125.476
325 7.73214 2.23208 123.898
326 9.66518 5.58019 123.898
329 11.5982 2.23208 123.898
105 13.5312 1.11604 124.687
106 15.4643 4.46415 124.687
109 17.3973 1.11604 124.687
314 13.5312 3.34812 125.476
317 15.4643 1.4878e-08 125.476
318 17.3973 3.34812 125.476
330 13.5312 5.58019 123.898
333 15.4643 2.23208 123.898
334 17.3973 5.58019 123.898
110 19.3304 4.46415 124.687
99 9.66518 7.81227 124.687
100 11.5982 11.1604 124.687
307 7.73214 6.69623 125.476
308 9.66518 10.0443 125.476
311 11.5982 6.69623 125.476
323 7.73214 8.92831 123.898
324 9.66518 12.2764 123.898
327 11.5982 8.92831 123.898
103 13.5312 7.81227 124.687
104 15.4643 11.1604 124.687
107 17.3973 7.81227 124.687
312 13.5312 10.0443 125.476
315 15.4643 6.69623 125.476
316 17.3973 10.0443 125.476
328 13.5312 12.2764 123.898
331 15.4643 8.92831 123.898
332 17.3973 12.2764 123.898
108 19.3304 11.1604 124.687
111 21.2634 7.81227 124.687
112 23.1964 11.1604 124.687
319 19.3304 6.69623 125.476
320 21.2634 10.0443 125.476
335 19.3304 8.92831 123.898
336 21.2634 12.2764 123.898
65 3.86607 2.23208 131
66 5.79911 5.58019 131
81 3.86607 7.075e-08 127.844
82 5.79911 3.34812 127.844
241 5.79911 1.11604 131.789
257 3.86607 -7.302e-09 130.211
258 5.79911 3.34812 130.211
273 3.86607 2.23208 128.633
274 5.79911 5.58019 128.633
289 5.79911 1.11604 127.055
69 7.73214 2.23208 131
70 9.66518 5.58019 131
73 11.5982 2.23208 131
85 7.73214 7.075e-08 127.844
86 9.66518 3.34812 127.844
89 11.5982 7.075e-08 127.844
242 7.73214 4.46415 131.789
245 9.66518 1.11604 131.789
246 11.5982 4.46415 131.789
261 7.73214 -7.302e-09 130.211
262 9.66518 3.34812 130.211
265 11.5982 -7.302e-09 130.211
277 7.73214 2.23208 128.633
278 9.66518 5.58019 128.633
281 11.5982 2.23208 128.633
290 7.73214 4.46415 127.055
293 9.66518 1.11604 127.055
294 11.5982 4.46415 127.055
74 13.5312 5.58019 131
77 15.4643 2.23208 131
78 17.3973 5.58019 131
90 13.5312 3.34812 127.844
93 15.4643 7.075e-08 127.844
94 17.3973 3.34812 127.844
249 13.5312 1.11604 131.789
250 15.4643 4.46415 131.789
253 17.3973 1.11604 131.789
266 13.5312 3.34812 130.211
269 15.4643 -7.302e-09 130.211
270 17.3973 3.34812 130.211
282 13.5312 5.58019 128.633
285 15.4643 2.23208 128.633
286 17.3973 5.58019 128.633
297 13.5312 1.11604 127.055
298 15.4643 4.46415 127.055
301 17.3973 1.11604 127.055
254 19.3304 4.46415 131.789
302 19.3304 4.46415 127.055
67 7.73214 8.92831 131
68 9.66518 12.2764 131
71 11.5982 8.92831 131
83 7.73214 6.69623 127.844
84 9.66518 10.0443 127.844
87 11.5982 6.69623 127.844
243 9.66518 7.81227 131.789
244 11.5982 11.1604 131.789
259 7.73214 6.69623 130.211
260 9.66518 10.0443 130.211
263 11.5982 6.69623 130.211
275 7.73214 8.92831 128.633
276 9.66518 12.2764 128.633
279 11.5982 8.92831 128.633
291 9.66518 7.81227 127.055
292 11.5982 11.1604 127.055
72 13.5312 12.2764 131
75 15.4643 8.92831 131
76 17.3973 12.2764 131
88 13.5312 10.0443 127.844
91 15.4643 6.69623 127.844
92 17.3973 10.0443 127.844
247 13.5312 7.81227 131.789
248 15.4643 11.1604 131.789
251 17.3973 7.81227 131.789
264 13.5312 10.0443 130.211
267 15.4643 6.69623 130.211
268 17.3973 10.0443 130.211
280 13.5312 12.2764 128.633
283 15.4643 8.92831 128.633
284 17.3973 12.2764 128.633
295 13.5312 7.81227 127.055
296 15.4643 11.1604 127.055
299 17.3973 7.81227 127.055
79 19.3304 8.92831 131
80 21.2634 12.2764 131
95 19.3304 6.69623 127.844
96 21.2634 10.0443 127.844
252 19.3304 11.1604 131.789
255 21.2634 7.81227 131.789
256 23.1964 11.1604 131.789
271 19.3304 6.69623 130.211
272 21.2634 10.0443 130.211
287 19.3304 8.92831 128.633
288 21.2634 12.2764 128.633
300 19.3304 11.1604 127.055
303 21.2634 7.81227 127.055
304 23.1964 11.1604 127.055
33 3.86607 3.755e-08 137.314
34 5.79911 3.34812 137.314
49 5.79911 1.11604 134.157
177 3.86607 2.23208 138.103
178 5.79911 5.58019 138.103
193 5.79911 1.11604 136.524
209 3.86607 -2.9483e-08 134.946
210 5.79911 3.34812 134.946
225 3.86607 2.23208 133.368
226 5.79911 5.58019 133.368
37 7.73214 3.755e-08 137.314
38 9.66518 3.34812 137.314
41 11.5982 3.755e-08 137.314
50 7.73214 4.46415 134.157
53 9.66518 1.11604 134.157
54 11.5982 4.46415 134.157
181 7.73214 2.23208 138.103
182 9.66518 5.58019 138.103
185 11.5982 2.23208 138.103
194 7.73214 4.46415 136.524
197 9.66518 1.11604 136.524
198 11.5982 4.46415 136.524
213 7.73214 -2.9483e-08 134.946
214 9.66518 3.34812 134.946
217 11.5982 -2.9483e-08 134.946
229 7.73214 2.23208 133.368
230 9.66518 5.58019 133.368
233 11.5982 2.23208 133.368
42 13.5312 3.34812 137.314
45 15.4643 3.755e-08 137.314
46 17.3973 3.34812 137.314
57 13.5312 1.11604 134.157
58 15.4643 4.46415 134.157
61 17.3973 1.11604 134.157
186 13.5312 5.58019 138.103
189 15.4643 2.23208 138.103
190 17.3973 5.58019 138.103
201 13.5312 1.11604 136.524
202 15.4643 4.46415 136.524
205 17.3973 1.11604 136.524
218 13.5312 3.34812 134.946
221 15.4643 -2.9483e-08 134.946
222 17.3973 3.34812 134.946
234 13.5312 5.58019 133.368
237 15.4643 2.23208 133.368
238 17.3973 5.58019 133.368
62 19.3304 4.46415 134.157
206 19.3304 4.46415 136.524
35 7.73214 6.69623 137.314
36 9.66518 10.0443 137.314
39 11.5982 6.69623 137.314
51 9.66518 7.81227 134.157
52 11.5982 11.1604 134.157
179 7.73214 8.92831 138.103
180 9.66518 12.2764 138.103
183 11.5982 8.92831 138.103
195 9.66518 7.81227 136.524
196 11.5982 11.1604 136.524
211 7.73214 6.69623 134.946
212 9.66518 10.0443 134.946
215 11.5982 6.69623 134.946
227 7.73214 8.92831 133.368
228 9.66518 12.2764 133.368
231 11.5982 8.92831 133.368
40 13.5312 10.0443 137.314
43 15.4643 6.69623 137.314
44 17.3973 10.0443 137.314
55 13.5312 7.81227 134.157
56 15.4643 11.1604 134.157
59 17.3973 7.81227 134.157
184 13.5312 12.2764 138.103
187 15.4643 8.92831 138.103
188 17.3973 12.2764 138.103
199 13.5312 7.81227 136.524
200 15.4643 11.1604 136.524
203 17.3973 7.81227 136.524
216 13.5312 10.0443 134.946
219 15.4643 6.69623 134.946
220 17.3973 10.0443 134.946
232 13.5312 12.2764 133.368
235 15.4643 8.92831 133.368
236 17.3973 12.2764 133.368
47 19.3304 6.69623 137.314
48 21.2634 10.0443 137.314
60 19.3304 11.1604 134.157
63 21.2634 7.81227 134.157
64 23.1964 11.1604 134.157
191 19.3304 8.92831 138.103
192 21.2634 12.2764 138.103
204 19.3304 11.1604 136.524
207 21.2634 7.81227 136.524
208 23.1964 11.1604 136.524
223 19.3304 6.69623 134.946
224 21.2634 10.0443 134.946
239 19.3304 8.92831 133.368
240 21.2634 12.2764 133.368
1 5.79911 1.11604 143.627
17 3.86607 2.23208 140.47
18 5.79911 5.58019 140.47
113 3.86607 -6.2683e-08 144.416
114 5.79911 3.34812 144.416
129 3.86607 2.23208 142.838
130 5.79911 5.58019 142.838
145 5.79911 1.11604 141.259
161 3.86607 -4.0503e-08 139.681
162 5.79911 3.34812 139.681
2 7.73214 4.46415 143.627
5 9.66518 1.11604 143.627
6 11.5982 4.46415 143.627
21 7.73214 2.23208 140.47
22 9.66518 5.58019 140.47
25 11.5982 2.23208 140.47
117 7.73214 -6.2683e-08 144.416
118 9.66518 3.34812 144.416
121 11.5982 -6.2683e-08 144.416
133 7.73214 2.23208 142.838
134 9.66518 5.58019 142.838
137 11.5982 2.23208 142.838
146 7.73214 4.46415 141.259
149 9.66518 1.11604 141.259
150 11.5982 4.46415 141.259
165 7.73214 -4.0503e-08 139.681
166 9.66518 3.34812 139.681
169 11.5982 -4.0503e-08 139.681
9 13.5312 1.11604 143.627
10 15.4643 4.46415 143.627
13 17.3973 1.11604 143.627
26 13.5312 5.58019 140.47
29 15.4643 2.23208 140.47
30 17.3973 5.58019 140.47
122 13.5312 3.34812 144.416
125 15.4643 -6.2683e-08 144.416
126 17.3973 3.34812 144.416
138 13.5312 5.58019 142.838
141 15.4643 2.23208 142.838
142 17.3973 5.58019 142.838
153 13.5312 1.11604 141.259
154 15.4643 4.46415 141.259
157 17.3973 1.11604 141.259
170 13.5312 3.34812 139.681
173 15.4643 -4.0503e-08 139.681
174 17.3973 3.34812 139.681
14 19.3304 4.46415 143.627
158 19.3304 4.46415 141.259
3 9.66518 7.81227 143.627
4 11.5982 11.1604 143.627
19 7.73214 8.92831 140.47
20 9.66518 12.2764 140.47
23 11.5982 8.92831 140.47
115 7.73214 6.69623 144.416
116 9.66518 10.0443 144.416
119 11.5982 6.69623 144.416
131 7.73214 8.92831 142.838
132 9.66518 12.2764 142.838
135 11.5982 8.92831 142.838
147 9.66518 7.81227 141.259
148 11.5982 11.1604 141.259
163 7.73214 6.69623 139.681
164 9.66518 10.0443 139.681
167 11.5982 6.69623 139.681
7 13.5312 7.81227 143.627
8 15.4643 11.1604 143.627
11 17.3973 7.81227 143.627
24 13.5312 12.2764 140.47
27 15.4643 8.92831 140.47
28 17.3973 12.2764 140.47
120 13.5312 10.0443 144.416
123 15.4643 6.69623 144.416
124 17.3973 10.0443 144.416
136 13.5312 12.2764 142.838
139 15.4643 8.92831 142.838
140 17.3973 12.2764 142.838
151 13.5312 7.81227 141.259
152 15.4643 11.1604 141.259
155 17.3973 7.81227 141.259
168 13.5312 10.0443 139.681
171 15.4643 6.69623 139.681
172 17.3973 10.0443 139.681
12 19.3304 11.1604 143.627
15 21.2634 7.81227 143.627
16 23.1964 11.1604 143.627
31 19.3304 8.92831 140.47
32 21.2634 12.2764 140.47
127 19.3304 6.69623 144.416
128 21.2634 10.0443 144.416
143 19.3304 8.92831 142.838
144 21.2634 12.2764 142.838
156 19.3304 11.1604 141.259
159 21.2634 7.81227 141.259
160 23.1964 11.1604 141.259
175 19.3304 6.69623 139.681
176 21.2634 10.0443 139.681
ITEM: TIMESTEP
11
ITEM: NUMBER OF ATOMS
336
ITEM: BOX BOUNDS xy xz yz pp pp pp
0.0000000000000000e+00 2.5129462906297999e+01 7.7321424350000001e+00
-1.1160386247630001e+00 1.3392463548779000e+01 1.9330356012979999e+00
0.0000000000000000e+00 1.4520516084427399e+02 -1.1160386247630001e+00
ITEM: ATOMS id xu yu zu
97 5.79832 1.12012 124.617
305 3.86307 -0.00635232 125.41
306 5.79611 3.34176 125.41
321 3.86331 2.22561 123.835
322 5.79634 5.57372 123.835
98 7.73135 4.46824 124.617
101 9.66439 1.12012 124.617
102 11.5974 4.46824 124.617
309 7.72915 -0.00635241 125.41
310 9.66218 3.34176 125.41
313 11.5952 -0.00635261 125.41
325 7.72938 2.22561 123.835
326 9.66241 5.57372 123.835
329 11.5954 2.22561 123.835
105 13.5305 1.12012 124.617
106 15.4635 4.46824 124.617
109 17.3965 1.12012 124.617
314 13.5283 3.34176 125.41
317 15.4613 -0.00635253 125.41
318 17.3943 3.34176 125.41
330 13.5285 5.57372 123.835
333 15.4615 2.22561 123.835
334 17.3946 5.57372 123.835
110 19.3296 4.46824 124.617
99 9.66439 7.81635 124.617
100 11.5974 11.1645 124.617
307 7.72915 6.68988 125.41
308 9.66218 10.038 125.41
311 11.5952 6.68988 125.41
323 7.72938 8.92183 123.835
324 9.66241 12.27 123.835
327 11.5954 8.92183 123.835
103 13.5305 7.81635 124.617
104 15.4635 11.1645 124.617
107 17.3965 7.81635 124.617
312 13.5283 10.038 125.41
315 15.4613 6.68988 125.41
316 17.3943 10.038 125.41
328 13.5285 12.27 123.835
331 15.4615 8.92183 123.835
332 17.3946 12.27 123.835
108 19.3296 11.1645 124.617
111 21.2626 7.81635 124.617
112 23.1956 11.1645 124.617
319 19.3274 6.68988 125.41
320 21.2604 10.038 125.41
335 19.3276 8.92183 123.835
336 21.2606 12.27 123.835
65 3.86635 2.24369 130.973
66 5.79939 5.5918 130.973
81 3.87327 0.00296995 127.801
82 5.80631 3.35109 127.801
241 5.79751 1.11313 131.775
257 3.86445 -0.00302681 130.185
258 5.79748 3.34509 130.185
273 3.86677 2.23034 128.584
274 5.79981 5.57845 128.584
289 5.79961 1.11512 126.987
69 7.73243 2.24369 130.973
70 9.66546 5.5918 130.973
73 11.5985 2.24369 130.973
85 7.73934 0.00296998 127.801
86 9.67238 3.35109 127.801
89 11.6054 0.00297012 127.801
242 7.73055 4.46125 131.775
245 9.66358 1.11313 131.775
246 11.5966 4.46125 131.775
261 7.73052 -0.00302704 130.185
262 9.66355 3.34509 130.185
265 11.5966 -0.00302714 130.185
277 7.73285 2.23034 128.584
278 9.66588 5.57845 128.584
281 11.5989 2.23034 128.584
290 7.73265 4.46324 126.987
293 9.66568 1.11512 126.987
294 11.5987 4.46324 126.987
74 13.5315 5.5918 130.973
77 15.4646 2.24369 130.973
78 17.3976 5.5918 130.973
90 13.5384 3.35109 127.801
93 15.4715 0.0029701 127.801
94 17.4045 3.35109 127.801
249 13.5297 1.11313 131.775
250 15.4627 4.46125 131.775
253 17.3957 1.11313 131.775
266 13.5296 3.34509 130.185
269 15.4627 -0.00302691 130.185
270 17.3957 3.34509 130.185
282 13.532 5.57845 128.584
285 15.465 2.23034 128.584
286 17.398 5.57845 128.584
297 13.5318 1.11512 126.987
298 15.4648 4.46324 126.987
301 17.3978 1.11512 126.987
254 19.3288 4.46125 131.775
302 19.3309 4.46324 126.987
67 7.73243 8.93992 130.973
68 9.66546 12.288 130.973
71 11.5985 8.93992 130.973
83 7.73934 6.6992 127.801
84 9.67238 10.0473 127.801
87 11.6054 6.6992 127.801
243 9.66358 7.80937 131.775
244 11.5966 11.1575 131.775
259 7.73052 6.6932 130.185
260 9.66355 10.0413 130.185
263 11.5966 6.6932 130.185
275 7.73285 8.92657 128.584
276 9.66588 12.2747 128.584
279 11.5989 8.92657 128.584
291 9.66568 7.81136 126.987
292 11.5987 11.1595 126.987
72 13.5315 12.288 130.973
75 15.4646 8.93992 130.973
76 17.3976 12.288 130.973
88 13.5385 10.0473 127.801
91 15.4715 6.6992 127.801
92 17.4045 10.0473 127.801
247 13.5297 7.80937 131.775
248 15.4627 11.1575 131.775
251 17.3957 7.80937 131.775
264 13.5296 10.0413 130.185
267 15.4627 6.6932 130.185
268 17.3957 10.0413 130.185
280 13.532 12.2747 128.584
283 15.465 8.92657 128.584
284 17.398 12.2747 128.584
295 13.5318 7.81136 126.987
296 15.4648 11.1595 126.987
299 17.3978 7.81136 126.987
79 19.3306 8.93992 130.973
80 21.2637 12.288 130.973
95 19.3376 6.6992 127.801
96 21.2706 10.0473 127.801
252 19.3288 11.1575 131.775
255 21.2618 7.80937 131.775
256 23.1948 11.1575 131.775
271 19.3287 6.6932 130.185
272 21.2618 10.0413 130.185
287 19.3311 8.92657 128.584
288 21.2641 12.2747 128.584
300 19.3309 11.1595 126.987
303 21.2639 7.81136 126.987
304 23.1969 11.1595 126.987
33 3.87606 0.00618719 137.342
34 5.80909 3.3543 137.342
49 5.80538 1.1268 134.158
177 3.8643 2.22978 138.131
178 5.79733 5.5779 138.131
193 5.79697 1.11384 136.54
209 3.86278 -0.00248182 134.953
210 5.79582 3.34563 134.953
225 3.86332 2.22905 133.36
226 5.79636 5.57717 133.36
37 7.74213 0.00618737 137.342
38 9.67516 3.3543 137.342
41 11.6082 0.00618727 137.342
50 7.73841 4.47492 134.158
53 9.67145 1.1268 134.158
54 11.6045 4.47492 134.158
181 7.73037 2.22978 138.131
182 9.6634 5.5779 138.131
185 11.5964 2.22978 138.131
194 7.73 4.46196 136.54
197 9.66304 1.11384 136.54
198 11.5961 4.46196 136.54
213 7.72886 -0.00248162 134.953
214 9.66189 3.34563 134.953
217 11.5949 -0.00248124 134.953
229 7.72939 2.22905 133.36
230 9.66243 5.57717 133.36
233 11.5955 2.22905 133.36
42 13.5412 3.3543 137.342
45 15.4743 0.00618709 137.342
46 17.4073 3.3543 137.342
57 13.5375 1.1268 134.158
58 15.4706 4.47492 134.158
61 17.4036 1.1268 134.158
186 13.5295 5.5779 138.131
189 15.4625 2.22978 138.131
190 17.3955 5.5779 138.131
201 13.5291 1.11384 136.54
202 15.4621 4.46196 136.54
205 17.3952 1.11384 136.54
218 13.528 3.34563 134.953
221 15.461 -0.00248144 134.953
222 17.394 3.34563 134.953
234 13.5285 5.57717 133.36
237 15.4615 2.22905 133.36
238 17.3946 5.57717 133.36
62 19.3366 4.47492 134.158
206 19.3282 4.46196 136.54
35 7.74213 6.70242 137.342
36 9.67516 10.0505 137.342
39 11.6082 6.70242 137.342
51 9.67145 7.82303 134.158
52 11.6045 11.1711 134.158
179 7.73037 8.92602 138.131
180 9.6634 12.2741 138.131
183 11.5964 8.92602 138.131
195 9.66304 7.81007 136.54
196 11.5961 11.1582 136.54
211 7.72886 6.69375 134.953
212 9.66189 10.0419 134.953
215 11.5949 6.69375 134.953
227 7.72939 8.92529 133.36
228 9.66243 12.2734 133.36
231 11.5955 8.92529 133.36
40 13.5412 10.0505 137.342
43 15.4743 6.70242 137.342
44 17.4073 10.0505 137.342
55 13.5375 7.82304 134.158
56 15.4706 11.1711 134.158
59 17.4036 7.82304 134.158
184 13.5295 12.2741 138.131
187 15.4625 8.92602 138.131
188 17.3955 12.2741 138.131
199 13.5291 7.81007 136.54
200 15.4621 11.1582 136.54
203 17.3952 7.81007 136.54
216 13.528 10.0419 134.953
219 15.461 6.69375 134.953
220 17.394 10.0419 134.953
232 13.5285 12.2734 133.36
235 15.4615 8.92529 133.36
236 17.3946 12.2734 133.36
47 19.3403 6.70242 137.342
48 21.2734 10.0505 137.342
60 19.3366 11.1711 134.158
63 21.2697 7.82303 134.158
64 23.2027 11.1711 134.158
191 19.3286 8.92602 138.131
192 21.2616 12.2741 138.131
204 19.3282 11.1582 136.54
207 21.2613 7.81007 136.54
208 23.1943 11.1582 136.54
223 19.3271 6.69375 134.953
224 21.2601 10.0419 134.953
239 19.3276 8.92529 133.36
240 21.2606 12.2734 133.36
1 5.80078 1.11522 143.699
17 3.86583 2.24139 140.514
18 5.79887 5.58951 140.514
113 3.86377 -0.00482627 144.476
114 5.7968 3.34329 144.476
129 3.8638 2.22729 142.902
130 5.79683 5.57541 142.902
145 5.79838 1.11443 141.325
161 3.86471 -0.00147878 139.729
162 5.79775 3.34664 139.729
2 7.73382 4.46333 143.699
5 9.66685 1.11522 143.699
6 11.5999 4.46333 143.699
21 7.7319 2.24139 140.514
22 9.66494 5.58951 140.514
25 11.598 2.24139 140.514
117 7.72984 -0.00482686 144.476
118 9.66287 3.34329 144.476
121 11.5959 -0.00482676 144.476
133 7.72987 2.22729 142.902
134 9.66291 5.57541 142.902
137 11.5959 2.22729 142.902
146 7.73142 4.46255 141.325
149 9.66445 1.11443 141.325
150 11.5975 4.46255 141.325
165 7.73078 -0.00147892 139.729
166 9.66382 3.34664 139.729
169 11.5969 -0.00147888 139.729
9 13.5329 1.11522 143.699
10 15.466 4.46333 143.699
13 17.399 1.11522 143.699
26 13.531 5.58951 140.514
29 15.464 2.24139 140.514
30 17.3971 5.58951 140.514
122 13.5289 3.34329 144.476
125 15.462 -0.00482618 144.476
126 17.395 3.34329 144.476
138 13.529 5.57541 142.902
141 15.462 2.22729 142.902
142 17.395 5.57541 142.902
153 13.5305 1.11443 141.325
154 15.4636 4.46255 141.325
157 17.3966 1.11443 141.325
170 13.5299 3.34664 139.729
173 15.4629 -0.00147874 139.729
174 17.396 3.34664 139.729
14 19.332 4.46333 143.699
158 19.3296 4.46255 141.325
3 9.66685 7.81145 143.699
4 11.5999 11.1596 143.699
19 7.7319 8.93762 140.514
20 9.66494 12.2857 140.514
23 11.598 8.93763 140.514
115 7.72984 6.69141 144.476
116 9.66287 10.0395 144.476
119 11.5959 6.69141 144.476
131 7.72987 8.92352 142.902
132 9.66291 12.2716 142.902
135 11.5959 8.92352 142.902
147 9.66445 7.81066 141.325
148 11.5975 11.1588 141.325
163 7.73078 6.69475 139.729
164 9.66382 10.0429 139.729
167 11.5969 6.69475 139.729
7 13.5329 7.81145 143.699
8 15.466 11.1596 143.699
11 17.399 7.81145 143.699
24 13.531 12.2857 140.514
27 15.464 8.93763 140.514
28 17.3971 12.2857 140.514
120 13.5289 10.0395 144.476
123 15.462 6.69141 144.476
124 17.395 10.0395 144.476
136 13.529 12.2716 142.902
139 15.462 8.92352 142.902
140 17.395 12.2716 142.902
151 13.5305 7.81066 141.325
152 15.4636 11.1588 141.325
155 17.3966 7.81066 141.325
168 13.5299 10.0429 139.729
171 15.4629 6.69475 139.729
172 17.396 10.0429 139.729
12 19.332 11.1596 143.699
15 21.2651 7.81145 143.699
16 23.1981 11.1596 143.699
31 19.3301 8.93762 140.514
32 21.2632 12.2857 140.514
127 19.3281 6.69141 144.476
128 21.2611 10.0395 144.476
143 19.3281 8.92352 142.902
144 21.2611 12.2716 142.902
156 19.3296 11.1588 141.325
159 21.2627 7.81066 141.325
160 23.1957 11.1588 141.325
175 19.329 6.69475 139.729
176 21.262 10.0429 139.729
