ITEM: TIMESTEP
0
ITEM: NUMBER OF ATOMS
1344
ITEM: BOX BOUNDS xy xz yz pp pp pp
0.0000000000000000e+00 4.6392899999999997e+01 1.5464300000000000e+01
0.0000000000000000e+00 2.6784953303487001e+01 0.0000000000000000e+00
0.0000000000000000e+00 2.6130700000000002e+02 0.0000000000000000e+00
ITEM: ATOMS id xu yu zu 
1 0 0 120 
2 5.79911 3.34812 120 
3 3.86607 0 120 
4 32.8616 3.34812 120 
5 23.1964 26.785 122.367 
6 7.7323 4.46425 120.789 
7 5.79927 1.11613 120.789 
8 9.66519 3.34812 122.367 
9 5.79911 3.34812 122.367 
10 1.93319 1.11613 120.789 
11 3.86623 4.46425 120.789 
12 19.3304 26.785 122.367 
13 7.7323 4.46425 123.157 
14 1.93319 1.11613 123.157 
15 3.86623 4.46425 123.157 
16 5.79927 1.11613 123.157 
17 7.7323 4.46425 125.524 
18 3.86592 2.23199 123.946 
19 5.79896 5.58011 123.946 
20 5.79927 1.11613 125.524 
21 1.93319 1.11613 125.524 
22 9.66503 5.58011 123.946 
23 7.732 2.23199 123.946 
24 3.86623 4.46425 125.524 
25 3.86592 2.23199 126.313 
26 9.66503 5.58011 126.313 
27 7.732 2.23199 126.313 
28 5.79896 5.58011 126.313 
29 3.86592 2.23199 128.681 
30 23.1964 26.785 127.102 
31 9.66519 3.34812 127.102 
32 5.79896 5.58011 128.681 
33 9.66503 5.58011 128.681 
34 5.79911 3.34812 127.102 
35 19.3304 26.785 127.102 
36 7.732 2.23199 128.681 
37 23.1964 26.785 129.47 
38 5.79911 3.34812 129.47 
39 19.3304 26.785 129.47 
40 9.66519 3.34812 129.47 
41 23.1964 26.785 131.837 
42 7.7323 4.46425 130.259 
43 5.79927 1.11613 130.259 
44 9.66519 3.34812 131.837 
45 5.79911 3.34812 131.837 
46 1.93319 1.11613 130.259 
47 3.86623 4.46425 130.259 
48 19.3304 26.785 131.837 
49 7.7323 4.46425 132.626 
50 1.93319 1.11613 132.626 
51 3.86623 4.46425 132.626 
52 5.79927 1.11613 132.626 
53 7.7323 4.46425 134.994 
54 3.86592 2.23199 133.416 
55 5.79896 5.58011 133.416 
56 5.79927 1.11613 134.994 
57 1.93319 1.11613 134.994 
58 9.66503 5.58011 133.416 
59 7.732 2.23199 133.416 
60 3.86623 4.46425 134.994 
61 3.86592 2.23199 135.783 
62 9.66503 5.58011 135.783 
63 7.732 2.23199 135.783 
64 5.79896 5.58011 135.783 
65 3.86592 2.23199 138.15 
66 23.1964 26.785 136.572 
67 9.66519 3.34812 136.572 
68 5.79896 5.58011 138.15 
69 9.66503 5.58011 138.15 
70 5.79911 3.34812 136.572 
71 19.3304 26.785 136.572 
72 7.732 2.23199 138.15 
73 23.1964 26.785 138.94 
74 5.79911 3.34812 138.94 
75 19.3304 26.785 138.94 
76 9.66519 3.34812 138.94 
77 23.1964 26.785 141.307 
78 7.7323 4.46425 139.729 
79 5.79927 1.11613 139.729 
80 9.66519 3.34812 141.307 
81 5.79911 3.34812 141.307 
82 1.93319 1.11613 139.729 
83 3.86623 4.46425 139.729 
84 19.3304 26.785 141.307 
85 3.86607 6.69624 120 
86 9.66519 10.0444 120 
87 7.73215 6.69624 120 
88 5.79911 10.0444 120 
89 11.5982 6.69624 122.367 
90 11.5984 11.1605 120.789 
91 9.66534 7.81237 120.789 
92 13.5313 10.0444 122.367 
93 9.66519 10.0444 122.367 
94 5.79927 7.81237 120.789 
95 7.7323 11.1605 120.789 
96 7.73215 6.69624 122.367 
97 11.5984 11.1605 123.157 
98 5.79927 7.81237 123.157 
99 7.7323 11.1605 123.157 
100 9.66534 7.81237 123.157 
101 11.5984 11.1605 125.524 
102 7.732 8.92823 123.946 
103 9.66503 12.2763 123.946 
104 9.66534 7.81237 125.524 
105 5.79927 7.81237 125.524 
106 13.5311 12.2763 123.946 
107 11.5981 8.92823 123.946 
108 7.7323 11.1605 125.524 
109 7.732 8.92823 126.313 
110 13.5311 12.2763 126.313 
111 11.5981 8.92823 126.313 
112 9.66503 12.2763 126.313 
113 7.732 8.92823 128.681 
114 11.5982 6.69624 127.102 
115 13.5313 10.0444 127.102 
116 9.66503 12.2763 128.681 
117 13.5311 12.2763 128.681 
118 9.66519 10.0444 127.102 
119 7.73215 6.69624 127.102 
120 11.5981 8.92823 128.681 
121 11.5982 6.69624 129.47 
122 9.66519 10.0444 129.47 
123 7.73215 6.69624 129.47 
124 13.5313 10.0444 129.47 
125 11.5982 6.69624 131.837 
126 11.5984 11.1605 130.259 
127 9.66534 7.81237 130.259 
128 13.5313 10.0444 131.837 
129 9.66519 10.0444 131.837 
130 5.79927 7.81237 130.259 
131 7.7323 11.1605 130.259 
132 7.73215 6.69624 131.837 
133 11.5984 11.1605 132.626 
134 5.79927 7.81237 132.626 
135 7.7323 11.1605 132.626 
136 9.66534 7.81237 132.626 
137 11.5984 11.1605 134.994 
138 7.732 8.92823 133.416 
139 9.66503 12.2763 133.416 
140 9.66534 7.81237 134.994 
141 5.79927 7.81237 134.994 
142 13.5311 12.2763 133.416 
143 11.5981 8.92823 133.416 
144 7.7323 11.1605 134.994 
145 7.732 8.92823 135.783 
146 13.5311 12.2763 135.783 
147 11.5981 8.92823 135.783 
148 9.66503 12.2763 135.783 
149 7.732 8.92823 138.15 
150 11.5982 6.69624 136.572 
151 13.5313 10.0444 136.572 
152 9.66503 12.2763 138.15 
153 13.5311 12.2763 138.15 
154 9.66519 10.0444 136.572 
155 7.73215 6.69624 136.572 
156 11.5981 8.92823 138.15 
157 11.5982 6.69624 138.94 
158 9.66519 10.0444 138.94 
159 7.73215 6.69624 138.94 
160 13.5313 10.0444 138.94 
161 11.5982 6.69624 141.307 
162 11.5984 11.1605 139.729 
163 9.66534 7.81237 139.729 
164 13.5313 10.0444 141.307 
165 9.66519 10.0444 141.307 
166 5.79927 7.81237 139.729 
167 7.7323 11.1605 139.729 
168 7.73215 6.69624 141.307 
169 7.73215 13.3925 120 
170 13.5313 16.7406 120 
171 11.5982 13.3925 120 
172 40.5938 16.7406 120 
173 15.4643 13.3925 122.367 
174 15.4645 17.8567 120.789 
175 13.5314 14.5086 120.789 
176 17.3973 16.7406 122.367 
177 13.5313 16.7406 122.367 
178 9.66534 14.5086 120.789 
179 11.5984 17.8567 120.789 
180 11.5982 13.3925 122.367 
181 15.4645 17.8567 123.157 
182 9.66534 14.5086 123.157 
183 11.5984 17.8567 123.157 
184 13.5314 14.5086 123.157 
185 15.4645 17.8567 125.524 
186 11.5981 15.6245 123.946 
187 13.5311 18.9726 123.946 
188 13.5314 14.5086 125.524 
189 9.66534 14.5086 125.524 
190 17.3972 18.9726 123.946 
191 15.4641 15.6245 123.946 
192 11.5984 17.8567 125.524 
193 11.5981 15.6245 126.313 
194 17.3972 18.9726 126.313 
195 15.4641 15.6245 126.313 
196 13.5311 18.9726 126.313 
197 11.5981 15.6245 128.681 
198 15.4643 13.3925 127.102 
199 17.3973 16.7406 127.102 
200 13.5311 18.9726 128.681 
201 17.3972 18.9726 128.681 
202 13.5313 16.7406 127.102 
203 11.5982 13.3925 127.102 
204 15.4641 15.6245 128.681 
205 15.4643 13.3925 129.47 
206 13.5313 16.7406 129.47 
207 11.5982 13.3925 129.47 
208 17.3973 16.7406 129.47 
209 15.4643 13.3925 131.837 
210 15.4645 17.8567 130.259 
211 13.5314 14.5086 130.259 
212 17.3973 16.7406 131.837 
213 13.5313 16.7406 131.837 
214 9.66534 14.5086 130.259 
215 11.5984 17.8567 130.259 
216 11.5982 13.3925 131.837 
217 15.4645 17.8567 132.626 
218 9.66534 14.5086 132.626 
219 11.5984 17.8567 132.626 
220 13.5314 14.5086 132.626 
221 15.4645 17.8567 134.994 
222 11.5981 15.6245 133.416 
223 13.5311 18.9726 133.416 
224 13.5314 14.5086 134.994 
225 9.66534 14.5086 134.994 
226 17.3972 18.9726 133.416 
227 15.4641 15.6245 133.416 
228 11.5984 17.8567 134.994 
229 11.5981 15.6245 135.783 
230 17.3972 18.9726 135.783 
231 15.4641 15.6245 135.783 
232 13.5311 18.9726 135.783 
233 11.5981 15.6245 138.15 
234 15.4643 13.3925 136.572 
235 17.3973 16.7406 136.572 
236 13.5311 18.9726 138.15 
237 17.3972 18.9726 138.15 
238 13.5313 16.7406 136.572 
239 11.5982 13.3925 136.572 
240 15.4641 15.6245 138.15 
241 15.4643 13.3925 138.94 
242 13.5313 16.7406 138.94 
243 11.5982 13.3925 138.94 
244 17.3973 16.7406 138.94 
245 15.4643 13.3925 141.307 
246 15.4645 17.8567 139.729 
247 13.5314 14.5086 139.729 
248 17.3973 16.7406 141.307 
249 13.5313 16.7406 141.307 
250 9.66534 14.5086 139.729 
251 11.5984 17.8567 139.729 
252 11.5982 13.3925 141.307 
253 11.5982 20.0887 120 
254 17.3973 23.4368 120 
255 15.4643 20.0887 120 
256 13.5313 23.4368 120 
257 19.3304 20.0887 122.367 
258 19.3305 24.553 120.789 
259 17.3975 21.2048 120.789 
260 21.2634 23.4368 122.367 
261 17.3973 23.4368 122.367 
262 13.5314 21.2048 120.789 
263 15.4645 24.553 120.789 
264 15.4643 20.0887 122.367 
265 19.3305 24.553 123.157 
266 13.5314 21.2048 123.157 
267 15.4645 24.553 123.157 
268 17.3975 21.2048 123.157 
269 19.3305 24.553 125.524 
270 15.4641 22.3207 123.946 
271 17.3972 25.6688 123.946 
272 17.3975 21.2048 125.524 
273 13.5314 21.2048 125.524 
274 21.2633 25.6688 123.946 
275 19.3302 22.3207 123.946 
276 15.4645 24.553 125.524 
277 15.4641 22.3207 126.313 
278 21.2633 25.6688 126.313 
279 19.3302 22.3207 126.313 
280 17.3972 25.6688 126.313 
281 15.4641 22.3207 128.681 
282 19.3304 20.0887 127.102 
283 21.2634 23.4368 127.102 
284 17.3972 25.6688 128.681 
285 21.2633 25.6688 128.681 
286 17.3973 23.4368 127.102 
287 15.4643 20.0887 127.102 
288 19.3302 22.3207 128.681 
289 19.3304 20.0887 129.47 
290 17.3973 23.4368 129.47 
291 15.4643 20.0887 129.47 
292 21.2634 23.4368 129.47 
293 19.3304 20.0887 131.837 
294 19.3305 24.553 130.259 
295 17.3975 21.2048 130.259 
296 21.2634 23.4368 131.837 
297 17.3973 23.4368 131.837 
298 13.5314 21.2048 130.259 
299 15.4645 24.553 130.259 
300 15.4643 20.0887 131.837 
301 19.3305 24.553 132.626 
302 13.5314 21.2048 132.626 
303 15.4645 24.553 132.626 
304 17.3975 21.2048 132.626 
305 19.3305 24.553 134.994 
306 15.4641 22.3207 133.416 
307 17.3972 25.6688 133.416 
308 17.3975 21.2048 134.994 
309 13.5314 21.2048 134.994 
310 21.2633 25.6688 133.416 
311 19.3302 22.3207 133.416 
312 15.4645 24.553 134.994 
313 15.4641 22.3207 135.783 
314 21.2633 25.6688 135.783 
315 19.3302 22.3207 135.783 
316 17.3972 25.6688 135.783 
317 15.4641 22.3207 138.15 
318 19.3304 20.0887 136.572 
319 21.2634 23.4368 136.572 
320 17.3972 25.6688 138.15 
321 21.2633 25.6688 138.15 
322 17.3973 23.4368 136.572 
323 15.4643 20.0887 136.572 
324 19.3302 22.3207 138.15 
325 19.3304 20.0887 138.94 
326 17.3973 23.4368 138.94 
327 15.4643 20.0887 138.94 
328 21.2634 23.4368 138.94 
329 19.3304 20.0887 141.307 
330 19.3305 24.553 139.729 
331 17.3975 21.2048 139.729 
332 21.2634 23.4368 141.307 
333 17.3973 23.4368 141.307 
334 13.5314 21.2048 139.729 
335 15.4645 24.553 139.729 
336 15.4643 20.0887 141.307 
337 7.73215 0 120 
338 13.5313 3.34812 120 
339 11.5982 0 120 
340 9.66519 3.34812 120 
341 30.9286 26.785 122.367 
342 15.4645 4.46425 120.789 
343 13.5314 1.11613 120.789 
344 17.3973 3.34812 122.367 
345 13.5313 3.34812 122.367 
346 9.66534 1.11613 120.789 
347 11.5984 4.46425 120.789 
348 27.0625 26.785 122.367 
349 15.4645 4.46425 123.157 
350 9.66534 1.11613 123.157 
351 11.5984 4.46425 123.157 
352 13.5314 1.11613 123.157 
353 15.4645 4.46425 125.524 
354 11.5981 2.23199 123.946 
355 13.5311 5.58011 123.946 
356 13.5314 1.11613 125.524 
357 9.66534 1.11613 125.524 
358 17.3972 5.58011 123.946 
359 15.4641 2.23199 123.946 
360 11.5984 4.46425 125.524 
361 11.5981 2.23199 126.313 
362 17.3972 5.58011 126.313 
363 15.4641 2.23199 126.313 
364 13.5311 5.58011 126.313 
365 11.5981 2.23199 128.681 
366 30.9286 26.785 127.102 
367 17.3973 3.34812 127.102 
368 13.5311 5.58011 128.681 
369 17.3972 5.58011 128.681 
370 13.5313 3.34812 127.102 
371 27.0625 26.785 127.102 
372 15.4641 2.23199 128.681 
373 30.9286 26.785 129.47 
374 13.5313 3.34812 129.47 
375 27.0625 26.785 129.47 
376 17.3973 3.34812 129.47 
377 30.9286 26.785 131.837 
378 15.4645 4.46425 130.259 
379 13.5314 1.11613 130.259 
380 17.3973 3.34812 131.837 
381 13.5313 3.34812 131.837 
382 9.66534 1.11613 130.259 
383 11.5984 4.46425 130.259 
384 27.0625 26.785 131.837 
385 15.4645 4.46425 132.626 
386 9.66534 1.11613 132.626 
387 11.5984 4.46425 132.626 
388 13.5314 1.11613 132.626 
389 15.4645 4.46425 134.994 
390 11.5981 2.23199 133.416 
391 13.5311 5.58011 133.416 
392 13.5314 1.11613 134.994 
393 9.66534 1.11613 134.994 
394 17.3972 5.58011 133.416 
395 15.4641 2.23199 133.416 
396 11.5984 4.46425 134.994 
397 11.5981 2.23199 135.783 
398 17.3972 5.58011 135.783 
399 15.4641 2.23199 135.783 
400 13.5311 5.58011 135.783 
401 11.5981 2.23199 138.15 
402 30.9286 26.785 136.572 
403 17.3973 3.34812 136.572 
404 13.5311 5.58011 138.15 
405 17.3972 5.58011 138.15 
406 13.5313 3.34812 136.572 
407 27.0625 26.785 136.572 
408 15.4641 2.23199 138.15 
409 30.9286 26.785 138.94 
410 13.5313 3.34812 138.94 
411 27.0625 26.785 138.94 
412 17.3973 3.34812 138.94 
413 30.9286 26.785 141.307 
414 15.4645 4.46425 139.729 
415 13.5314 1.11613 139.729 
416 17.3973 3.34812 141.307 
417 13.5313 3.34812 141.307 
418 9.66534 1.11613 139.729 
419 11.5984 4.46425 139.729 
420 27.0625 26.785 141.307 
421 11.5982 6.69624 120 
422 17.3973 10.0444 120 
423 15.4643 6.69624 120 
424 13.5313 10.0444 120 
425 19.3304 6.69624 122.367 
426 19.3305 11.1605 120.789 
427 17.3975 7.81237 120.789 
428 21.2634 10.0444 122.367 
429 17.3973 10.0444 122.367 
430 13.5314 7.81237 120.789 
431 15.4645 11.1605 120.789 
432 15.4643 6.69624 122.367 
433 19.3305 11.1605 123.157 
434 13.5314 7.81237 123.157 
435 15.4645 11.1605 123.157 
436 17.3975 7.81237 123.157 
437 19.3305 11.1605 125.524 
438 15.4641 8.92823 123.946 
439 17.3972 12.2763 123.946 
440 17.3975 7.81237 125.524 
441 13.5314 7.81237 125.524 
442 21.2633 12.2763 123.946 
443 19.3302 8.92823 123.946 
444 15.4645 11.1605 125.524 
445 15.4641 8.92823 126.313 
446 21.2633 12.2763 126.313 
447 19.3302 8.92823 126.313 
448 17.3972 12.2763 126.313 
449 15.4641 8.92823 128.681 
450 19.3304 6.69624 127.102 
451 21.2634 10.0444 127.102 
452 17.3972 12.2763 128.681 
453 21.2633 12.2763 128.681 
454 17.3973 10.0444 127.102 
455 15.4643 6.69624 127.102 
456 19.3302 8.92823 128.681 
457 19.3304 6.69624 129.47 
458 17.3973 10.0444 129.47 
459 15.4643 6.69624 129.47 
460 21.2634 10.0444 129.47 
461 19.3304 6.69624 131.837 
462 19.3305 11.1605 130.259 
463 17.3975 7.81237 130.259 
464 21.2634 10.0444 131.837 
465 17.3973 10.0444 131.837 
466 13.5314 7.81237 130.259 
467 15.4645 11.1605 130.259 
468 15.4643 6.69624 131.837 
469 19.3305 11.1605 132.626 
470 13.5314 7.81237 132.626 
471 15.4645 11.1605 132.626 
472 17.3975 7.81237 132.626 
473 19.3305 11.1605 134.994 
474 15.4641 8.92823 133.416 
475 17.3972 12.2763 133.416 
476 17.3975 7.81237 134.994 
477 13.5314 7.81237 134.994 
478 21.2633 12.2763 133.416 
479 19.3302 8.92823 133.416 
480 15.4645 11.1605 134.994 
481 15.4641 8.92823 135.783 
482 21.2633 12.2763 135.783 
483 19.3302 8.92823 135.783 
484 17.3972 12.2763 135.783 
485 15.4641 8.92823 138.15 
486 19.3304 6.69624 136.572 
487 21.2634 10.0444 136.572 
488 17.3972 12.2763 138.15 
489 21.2633 12.2763 138.15 
490 17.3973 10.0444 136.572 
491 15.4643 6.69624 136.572 
492 19.3302 8.92823 138.15 
493 19.3304 6.69624 138.94 
494 17.3973 10.0444 138.94 
495 15.4643 6.69624 138.94 
496 21.2634 10.0444 138.94 
497 19.3304 6.69624 141.307 
498 19.3305 11.1605 139.729 
499 17.3975 7.81237 139.729 
500 21.2634 10.0444 141.307 
501 17.3973 10.0444 141.307 
502 13.5314 7.81237 139.729 
503 15.4645 11.1605 139.729 
504 15.4643 6.69624 141.307 
505 15.4643 13.3925 120 
506 21.2634 16.7406 120 
507 19.3304 13.3925 120 
508 17.3973 16.7406 120 
509 23.1964 13.3925 122.367 
510 23.1966 17.8567 120.789 
511 21.2636 14.5086 120.789 
512 25.1295 16.7406 122.367 
513 21.2634 16.7406 122.367 
514 17.3975 14.5086 120.789 
515 19.3305 17.8567 120.789 
516 19.3304 13.3925 122.367 
517 23.1966 17.8567 123.157 
518 17.3975 14.5086 123.157 
519 19.3305 17.8567 123.157 
520 21.2636 14.5086 123.157 
521 23.1966 17.8567 125.524 
522 19.3302 15.6245 123.946 
523 21.2633 18.9726 123.946 
524 21.2636 14.5086 125.524 
525 17.3975 14.5086 125.524 
526 25.1293 18.9726 123.946 
527 23.1963 15.6245 123.946 
528 19.3305 17.8567 125.524 
529 19.3302 15.6245 126.313 
530 25.1293 18.9726 126.313 
531 23.1963 15.6245 126.313 
532 21.2633 18.9726 126.313 
533 19.3302 15.6245 128.681 
534 23.1964 13.3925 127.102 
535 25.1295 16.7406 127.102 
536 21.2633 18.9726 128.681 
537 25.1293 18.9726 128.681 
538 21.2634 16.7406 127.102 
539 19.3304 13.3925 127.102 
540 23.1963 15.6245 128.681 
541 23.1964 13.3925 129.47 
542 21.2634 16.7406 129.47 
543 19.3304 13.3925 129.47 
544 25.1295 16.7406 129.47 
545 23.1964 13.3925 200.837 
546 23.1966 17.8567 130.259 
547 21.2636 14.5086 130.259 
548 25.1295 16.7406 131.837 
549 21.2634 16.7406 131.837 
550 17.3975 14.5086 130.259 
551 19.3305 17.8567 130.259 
552 19.3304 13.3925 131.837 
553 23.1966 17.8567 132.626 
554 17.3975 14.5086 132.626 
555 19.3305 17.8567 132.626 
556 21.2636 14.5086 132.626 
557 23.1966 17.8567 134.994 
558 19.3302 15.6245 133.416 
559 21.2633 18.9726 133.416 
560 21.2636 14.5086 134.994 
561 17.3975 14.5086 134.994 
562 25.1293 18.9726 133.416 
563 23.1963 15.6245 133.416 
564 19.3305 17.8567 134.994 
565 19.3302 15.6245 135.783 
566 25.1293 18.9726 135.783 
567 23.1963 15.6245 135.783 
568 21.2633 18.9726 135.783 
569 19.3302 15.6245 138.15 
570 23.1964 13.3925 136.572 
571 25.1295 16.7406 136.572 
572 21.2633 18.9726 138.15 
573 25.1293 18.9726 138.15 
574 21.2634 16.7406 136.572 
575 19.3304 13.3925 136.572 
576 23.1963 15.6245 138.15 
577 23.1964 13.3925 138.94 
578 21.2634 16.7406 138.94 
579 19.3304 13.3925 138.94 
580 25.1295 16.7406 138.94 
581 23.1964 13.3925 141.307 
582 23.1966 17.8567 139.729 
583 21.2636 14.5086 139.729 
584 25.1295 16.7406 141.307 
585 21.2634 16.7406 141.307 
586 17.3975 14.5086 139.729 
587 19.3305 17.8567 139.729 
588 19.3304 13.3925 141.307 
589 19.3304 20.0887 120 
590 25.1295 23.4368 120 
591 23.1964 20.0887 120 
592 21.2634 23.4368 120 
593 27.0625 20.0887 122.367 
594 27.0627 24.553 120.789 
595 25.1296 21.2048 120.789 
596 28.9956 23.4368 122.367 
597 25.1295 23.4368 122.367 
598 21.2636 21.2048 120.789 
599 23.1966 24.553 120.789 
600 23.1964 20.0887 122.367 
601 27.0627 24.553 123.157 
602 21.2636 21.2048 123.157 
603 23.1966 24.553 123.157 
604 25.1296 21.2048 123.157 
605 27.0627 24.553 125.524 
606 23.1963 22.3207 123.946 
607 25.1293 25.6688 123.946 
608 25.1296 21.2048 125.524 
609 21.2636 21.2048 125.524 
610 28.9954 25.6688 123.946 
611 27.0624 22.3207 123.946 
612 23.1966 24.553 125.524 
613 23.1963 22.3207 126.313 
614 28.9954 25.6688 126.313 
615 27.0624 22.3207 126.313 
616 25.1293 25.6688 126.313 
617 23.1963 22.3207 128.681 
618 27.0625 20.0887 127.102 
619 28.9956 23.4368 127.102 
620 25.1293 25.6688 128.681 
621 28.9954 25.6688 128.681 
622 25.1295 23.4368 127.102 
623 23.1964 20.0887 127.102 
624 27.0624 22.3207 128.681 
625 27.0625 20.0887 129.47 
626 25.1295 23.4368 129.47 
627 23.1964 20.0887 129.47 
628 28.9956 23.4368 129.47 
629 27.0625 20.0887 131.837 
630 27.0627 24.553 130.259 
631 25.1296 21.2048 130.259 
632 28.9956 23.4368 131.837 
633 25.1295 23.4368 131.837 
634 21.2636 21.2048 130.259 
635 23.1966 24.553 130.259 
636 23.1964 20.0887 131.837 
637 27.0627 24.553 132.626 
638 21.2636 21.2048 132.626 
639 23.1966 24.553 132.626 
640 25.1296 21.2048 132.626 
641 27.0627 24.553 134.994 
642 23.1963 22.3207 133.416 
643 25.1293 25.6688 133.416 
644 25.1296 21.2048 134.994 
645 21.2636 21.2048 134.994 
646 28.9954 25.6688 133.416 
647 27.0624 22.3207 133.416 
648 23.1966 24.553 134.994 
649 23.1963 22.3207 135.783 
650 28.9954 25.6688 135.783 
651 27.0624 22.3207 135.783 
652 25.1293 25.6688 135.783 
653 23.1963 22.3207 138.15 
654 27.0625 20.0887 136.572 
655 28.9956 23.4368 136.572 
656 25.1293 25.6688 138.15 
657 28.9954 25.6688 138.15 
658 25.1295 23.4368 136.572 
659 23.1964 20.0887 136.572 
660 27.0624 22.3207 138.15 
661 27.0625 20.0887 138.94 
662 25.1295 23.4368 138.94 
663 23.1964 20.0887 138.94 
664 28.9956 23.4368 138.94 
665 27.0625 20.0887 141.307 
666 27.0627 24.553 139.729 
667 25.1296 21.2048 139.729 
668 28.9956 23.4368 141.307 
669 25.1295 23.4368 141.307 
670 21.2636 21.2048 139.729 
671 23.1966 24.553 139.729 
672 23.1964 20.0887 141.307 
673 15.4643 0 120 
674 21.2634 3.34812 120 
675 19.3304 0 120 
676 17.3973 3.34812 120 
677 38.6608 26.785 122.367 
678 23.1966 4.46425 120.789 
679 21.2636 1.11613 120.789 
680 25.1295 3.34812 122.367 
681 21.2634 3.34812 122.367 
682 17.3975 1.11613 120.789 
683 19.3305 4.46425 120.789 
684 34.7947 26.785 122.367 
685 23.1966 4.46425 123.157 
686 17.3975 1.11613 123.157 
687 19.3305 4.46425 123.157 
688 21.2636 1.11613 123.157 
689 23.1966 4.46425 125.524 
690 19.3302 2.23199 123.946 
691 21.2633 5.58011 123.946 
692 21.2636 1.11613 125.524 
693 17.3975 1.11613 125.524 
694 25.1293 5.58011 123.946 
695 23.1963 2.23199 123.946 
696 19.3305 4.46425 125.524 
697 19.3302 2.23199 126.313 
698 25.1293 5.58011 126.313 
699 23.1963 2.23199 126.313 
700 21.2633 5.58011 126.313 
701 19.3302 2.23199 128.681 
702 38.6608 26.785 127.102 
703 25.1295 3.34812 127.102 
704 21.2633 5.58011 128.681 
705 25.1293 5.58011 128.681 
706 21.2634 3.34812 127.102 
707 34.7947 26.785 127.102 
708 23.1963 2.23199 128.681 
709 38.6608 26.785 129.47 
710 21.2634 3.34812 129.47 
711 34.7947 26.785 129.47 
712 25.1295 3.34812 129.47 
713 38.6608 26.785 131.837 
714 23.1966 4.46425 130.259 
715 21.2636 1.11613 130.259 
716 25.1295 3.34812 131.837 
717 21.2634 3.34812 131.837 
718 17.3975 1.11613 130.259 
719 19.3305 4.46425 130.259 
720 34.7947 26.785 131.837 
721 23.1966 4.46425 132.626 
722 17.3975 1.11613 132.626 
723 19.3305 4.46425 132.626 
724 21.2636 1.11613 132.626 
725 23.1966 4.46425 134.994 
726 19.3302 2.23199 133.416 
727 21.2633 5.58011 133.416 
728 21.2636 1.11613 134.994 
729 17.3975 1.11613 134.994 
730 25.1293 5.58011 133.416 
731 23.1963 2.23199 133.416 
732 19.3305 4.46425 134.994 
733 19.3302 2.23199 135.783 
734 25.1293 5.58011 135.783 
735 23.1963 2.23199 135.783 
736 21.2633 5.58011 135.783 
737 19.3302 2.23199 138.15 
738 38.6608 26.785 136.572 
739 25.1295 3.34812 136.572 
740 21.2633 5.58011 138.15 
741 25.1293 5.58011 138.15 
742 21.2634 3.34812 136.572 
743 34.7947 26.785 136.572 
744 23.1963 2.23199 138.15 
745 38.6608 26.785 138.94 
746 21.2634 3.34812 138.94 
747 34.7947 26.785 138.94 
748 25.1295 3.34812 138.94 
749 38.6608 26.785 141.307 
750 23.1966 4.46425 139.729 
751 21.2636 1.11613 139.729 
752 25.1295 3.34812 141.307 
753 21.2634 3.34812 141.307 
754 17.3975 1.11613 139.729 
755 19.3305 4.46425 139.729 
756 34.7947 26.785 141.307 
757 19.3304 6.69624 120 
758 25.1295 10.0444 120 
759 23.1964 6.69624 120 
760 21.2634 10.0444 120 
761 27.0625 6.69624 122.367 
762 27.0627 11.1605 120.789 
763 25.1296 7.81237 120.789 
764 28.9956 10.0444 122.367 
765 25.1295 10.0444 122.367 
766 21.2636 7.81237 120.789 
767 23.1966 11.1605 120.789 
768 23.1964 6.69624 122.367 
769 27.0627 11.1605 123.157 
770 21.2636 7.81237 123.157 
771 23.1966 11.1605 123.157 
772 25.1296 7.81237 123.157 
773 27.0627 11.1605 125.524 
774 23.1963 8.92823 123.946 
775 25.1293 12.2763 123.946 
776 25.1296 7.81237 125.524 
777 21.2636 7.81237 125.524 
778 28.9954 12.2763 123.946 
779 27.0624 8.92823 123.946 
780 23.1966 11.1605 125.524 
781 23.1963 8.92823 126.313 
782 28.9954 12.2763 126.313 
783 27.0624 8.92823 126.313 
784 25.1293 12.2763 126.313 
785 23.1963 8.92823 128.681 
786 27.0625 6.69624 127.102 
787 28.9956 10.0444 127.102 
788 25.1293 12.2763 128.681 
789 28.9954 12.2763 128.681 
790 25.1295 10.0444 127.102 
791 23.1964 6.69624 127.102 
792 27.0624 8.92823 128.681 
793 27.0625 6.69624 129.47 
794 25.1295 10.0444 129.47 
795 23.1964 6.69624 129.47 
796 28.9956 10.0444 129.47 
797 27.0625 6.69624 131.837 
798 27.0627 11.1605 130.259 
799 25.1296 7.81237 130.259 
800 28.9956 10.0444 131.837 
801 25.1295 10.0444 131.837 
802 21.2636 7.81237 130.259 
803 23.1966 11.1605 130.259 
804 23.1964 6.69624 131.837 
805 27.0627 11.1605 132.626 
806 21.2636 7.81237 132.626 
807 23.1966 11.1605 132.626 
808 25.1296 7.81237 132.626 
809 27.0627 11.1605 134.994 
810 23.1963 8.92823 133.416 
811 25.1293 12.2763 133.416 
812 25.1296 7.81237 134.994 
813 21.2636 7.81237 134.994 
814 28.9954 12.2763 133.416 
815 27.0624 8.92823 133.416 
816 23.1966 11.1605 134.994 
817 23.1963 8.92823 135.783 
818 28.9954 12.2763 135.783 
819 27.0624 8.92823 135.783 
820 25.1293 12.2763 135.783 
821 23.1963 8.92823 138.15 
822 27.0625 6.69624 136.572 
823 28.9956 10.0444 136.572 
824 25.1293 12.2763 138.15 
825 28.9954 12.2763 138.15 
826 25.1295 10.0444 136.572 
827 23.1964 6.69624 136.572 
828 27.0624 8.92823 138.15 
829 27.0625 6.69624 138.94 
830 25.1295 10.0444 138.94 
831 23.1964 6.69624 138.94 
832 28.9956 10.0444 138.94 
833 27.0625 6.69624 141.307 
834 27.0627 11.1605 139.729 
835 25.1296 7.81237 139.729 
836 28.9956 10.0444 141.307 
837 25.1295 10.0444 141.307 
838 21.2636 7.81237 139.729 
839 23.1966 11.1605 139.729 
840 23.1964 6.69624 141.307 
841 23.1964 13.3925 120 
842 28.9956 16.7406 120 
843 27.0625 13.3925 120 
844 25.1295 16.7406 120 
845 30.9286 13.3925 122.367 
846 30.9288 17.8567 120.789 
847 28.9957 14.5086 120.789 
848 32.8616 16.7406 122.367 
849 28.9956 16.7406 122.367 
850 25.1296 14.5086 120.789 
851 27.0627 17.8567 120.789 
852 27.0625 13.3925 122.367 
853 30.9288 17.8567 123.157 
854 25.1296 14.5086 123.157 
855 27.0627 17.8567 123.157 
856 28.9957 14.5086 123.157 
857 30.9288 17.8567 125.524 
858 27.0624 15.6245 123.946 
859 28.9954 18.9726 123.946 
860 28.9957 14.5086 125.524 
861 25.1296 14.5086 125.524 
862 32.8615 18.9726 123.946 
863 30.9284 15.6245 123.946 
864 27.0627 17.8567 125.524 
865 27.0624 15.6245 126.313 
866 32.8615 18.9726 126.313 
867 30.9284 15.6245 126.313 
868 28.9954 18.9726 126.313 
869 27.0624 15.6245 128.681 
870 30.9286 13.3925 127.102 
871 32.8616 16.7406 127.102 
872 28.9954 18.9726 128.681 
873 32.8615 18.9726 128.681 
874 28.9956 16.7406 127.102 
875 27.0625 13.3925 127.102 
876 30.9284 15.6245 128.681 
877 30.9286 13.3925 129.47 
878 28.9956 16.7406 129.47 
879 27.0625 13.3925 129.47 
880 32.8616 16.7406 129.47 
881 30.9286 13.3925 131.837 
882 30.9288 17.8567 130.259 
883 28.9957 14.5086 130.259 
884 32.8616 16.7406 131.837 
885 28.9956 16.7406 131.837 
886 25.1296 14.5086 130.259 
887 27.0627 17.8567 130.259 
888 27.0625 13.3925 131.837 
889 30.9288 17.8567 132.626 
890 25.1296 14.5086 132.626 
891 27.0627 17.8567 132.626 
892 28.9957 14.5086 132.626 
893 30.9288 17.8567 134.994 
894 27.0624 15.6245 133.416 
895 28.9954 18.9726 133.416 
896 28.9957 14.5086 134.994 
897 25.1296 14.5086 134.994 
898 32.8615 18.9726 133.416 
899 30.9284 15.6245 133.416 
900 27.0627 17.8567 134.994 
901 27.0624 15.6245 135.783 
902 32.8615 18.9726 135.783 
903 30.9284 15.6245 135.783 
904 28.9954 18.9726 135.783 
905 27.0624 15.6245 138.15 
906 30.9286 13.3925 136.572 
907 32.8616 16.7406 136.572 
908 28.9954 18.9726 138.15 
909 32.8615 18.9726 138.15 
910 28.9956 16.7406 136.572 
911 27.0625 13.3925 136.572 
912 30.9284 15.6245 138.15 
913 30.9286 13.3925 138.94 
914 28.9956 16.7406 138.94 
915 27.0625 13.3925 138.94 
916 32.8616 16.7406 138.94 
917 30.9286 13.3925 141.307 
918 30.9288 17.8567 139.729 
919 28.9957 14.5086 139.729 
920 32.8616 16.7406 141.307 
921 28.9956 16.7406 141.307 
922 25.1296 14.5086 139.729 
923 27.0627 17.8567 139.729 
924 27.0625 13.3925 141.307 
925 27.0625 20.0887 120 
926 32.8616 23.4368 120 
927 30.9286 20.0887 120 
928 28.9956 23.4368 120 
929 34.7947 20.0887 122.367 
930 34.7948 24.553 120.789 
931 32.8618 21.2048 120.789 
932 36.7277 23.4368 122.367 
933 32.8616 23.4368 122.367 
934 28.9957 21.2048 120.789 
935 30.9288 24.553 120.789 
936 30.9286 20.0887 122.367 
937 34.7948 24.553 123.157 
938 28.9957 21.2048 123.157 
939 30.9288 24.553 123.157 
940 32.8618 21.2048 123.157 
941 34.7948 24.553 125.524 
942 30.9284 22.3207 123.946 
943 32.8615 25.6688 123.946 
944 32.8618 21.2048 125.524 
945 28.9957 21.2048 125.524 
946 36.7276 25.6688 123.946 
947 34.7945 22.3207 123.946 
948 30.9288 24.553 125.524 
949 30.9284 22.3207 126.313 
950 36.7276 25.6688 126.313 
951 34.7945 22.3207 126.313 
952 32.8615 25.6688 126.313 
953 30.9284 22.3207 128.681 
954 34.7947 20.0887 127.102 
955 36.7277 23.4368 127.102 
956 32.8615 25.6688 128.681 
957 36.7276 25.6688 128.681 
958 32.8616 23.4368 127.102 
959 30.9286 20.0887 127.102 
960 34.7945 22.3207 128.681 
961 34.7947 20.0887 129.47 
962 32.8616 23.4368 129.47 
963 30.9286 20.0887 129.47 
964 36.7277 23.4368 129.47 
965 34.7947 20.0887 131.837 
966 34.7948 24.553 130.259 
967 32.8618 21.2048 130.259 
968 36.7277 23.4368 131.837 
969 32.8616 23.4368 131.837 
970 28.9957 21.2048 130.259 
971 30.9288 24.553 130.259 
972 30.9286 20.0887 131.837 
973 34.7948 24.553 132.626 
974 28.9957 21.2048 132.626 
975 30.9288 24.553 132.626 
976 32.8618 21.2048 132.626 
977 34.7948 24.553 134.994 
978 30.9284 22.3207 133.416 
979 32.8615 25.6688 133.416 
980 32.8618 21.2048 134.994 
981 28.9957 21.2048 134.994 
982 36.7276 25.6688 133.416 
983 34.7945 22.3207 133.416 
984 30.9288 24.553 134.994 
985 30.9284 22.3207 135.783 
986 36.7276 25.6688 135.783 
987 34.7945 22.3207 135.783 
988 32.8615 25.6688 135.783 
989 30.9284 22.3207 138.15 
990 34.7947 20.0887 136.572 
991 36.7277 23.4368 136.572 
992 32.8615 25.6688 138.15 
993 36.7276 25.6688 138.15 
994 32.8616 23.4368 136.572 
995 30.9286 20.0887 136.572 
996 34.7945 22.3207 138.15 
997 34.7947 20.0887 138.94 
998 32.8616 23.4368 138.94 
999 30.9286 20.0887 138.94 
1000 36.7277 23.4368 138.94 
1001 34.7947 20.0887 141.307 
1002 34.7948 24.553 139.729 
1003 32.8618 21.2048 139.729 
1004 36.7277 23.4368 141.307 
1005 32.8616 23.4368 141.307 
1006 28.9957 21.2048 139.729 
1007 30.9288 24.553 139.729 
1008 30.9286 20.0887 141.307 
1009 23.1964 0 120 
1010 28.9956 3.34812 120 
1011 27.0625 0 120 
1012 25.1295 3.34812 120 
1013 15.4643 26.785 122.367 
1014 30.9288 4.46425 120.789 
1015 28.9957 1.11613 120.789 
1016 1.93304 3.34812 122.367 
1017 28.9956 3.34812 122.367 
1018 25.1296 1.11613 120.789 
1019 27.0627 4.46425 120.789 
1020 42.5268 26.785 122.367 
1021 30.9288 4.46425 123.157 
1022 25.1296 1.11613 123.157 
1023 27.0627 4.46425 123.157 
1024 28.9957 1.11613 123.157 
1025 30.9288 4.46425 125.524 
1026 27.0624 2.23199 123.946 
1027 28.9954 5.58011 123.946 
1028 28.9957 1.11613 125.524 
1029 25.1296 1.11613 125.524 
1030 32.8615 5.58011 123.946 
1031 30.9284 2.23199 123.946 
1032 27.0627 4.46425 125.524 
1033 27.0624 2.23199 126.313 
1034 32.8615 5.58011 126.313 
1035 30.9284 2.23199 126.313 
1036 28.9954 5.58011 126.313 
1037 27.0624 2.23199 128.681 
1038 15.4643 26.785 127.102 
1039 1.93304 3.34812 127.102 
1040 28.9954 5.58011 128.681 
1041 32.8615 5.58011 128.681 
1042 28.9956 3.34812 127.102 
1043 42.5268 26.785 127.102 
1044 30.9284 2.23199 128.681 