ITEM: TIMESTEP
0
ITEM: NUMBER OF ATOMS
96
ITEM: BOX BOUNDS pp pp pp
0.0000000000000000e+00 1.0934900000000001e+01
0.0000000000000000e+00 1.0934900000000001e+01
0.0000000000000000e+00 1.0934900000000001e+01
ITEM: ATOMS id xu yu zu 
1 0 0 0 
2 0 2.73373 2.73373 
3 2.73373 0 2.73373 
4 2.73373 2.73373 0 
5 1.36686 1.36686 4.10059 
6 1.36686 4.10059 4.10059 
7 1.36686 4.10059 1.36686 
8 1.36686 1.36686 1.36686 
9 4.10059 1.36686 1.36686 
10 4.10059 4.10059 1.36686 
11 4.10059 4.10059 4.10059 
12 4.10059 1.36686 4.10059 
13 0 0 5.46745 
14 0 2.73373 8.20117 
15 2.73373 10.9349 8.20117 
16 2.73373 2.73373 5.46745 
17 1.36686 1.36686 9.56804 
18 1.36686 4.10059 9.56804 
19 1.36686 4.10059 6.83431 
20 1.36686 1.36686 6.83431 
21 4.10059 1.36686 6.83431 
22 4.10059 4.10059 6.83431 
23 4.10059 4.10059 9.56804 
24 4.10059 1.36686 9.56804 
25 0 5.46745 0 
26 0 8.20117 2.73373 
27 2.73373 5.46745 2.73373 
28 2.73373 8.20117 0 
29 1.36686 6.83431 4.10059 
30 1.36686 9.56804 4.10059 
31 1.36686 9.56804 1.36686 
32 1.36686 6.83431 1.36686 
33 4.10059 6.83431 1.36686 
34 4.10059 9.56804 1.36686 
35 4.10059 9.56804 4.10059 
36 4.10059 6.83431 4.10059 
37 0 5.46745 5.46745 
38 0 8.20117 8.20117 
39 2.73373 5.46745 8.20117 
40 2.73373 8.20117 5.46745 
41 1.36686 6.83431 9.56804 
42 1.36686 9.56804 9.56804 
43 1.36686 9.56804 6.83431 
44 1.36686 6.83431 6.83431 
45 4.10059 6.83431 6.83431 
46 4.10059 9.56804 6.83431 
47 4.10059 9.56804 9.56804 
48 4.10059 6.83431 9.56804 
49 5.46745 0 0 
50 5.46745 2.73373 2.73373 
51 8.20117 0 2.73373 
52 8.20117 2.73373 0 
53 6.83431 1.36686 4.10059 
54 6.83431 4.10059 4.10059 
55 6.83431 4.10059 1.36686 
56 6.83431 1.36686 1.36686 
57 9.56804 1.36686 1.36686 
58 9.56804 4.10059 1.36686 
59 9.56804 4.10059 4.10059 
60 9.56804 1.36686 4.10059 
61 5.46745 0 5.46745 
62 5.46745 2.73373 8.20117 
63 8.20117 10.9349 8.20117 
64 8.20117 2.73373 5.46745 
65 6.83431 1.36686 9.56804 
66 6.83431 4.10059 9.56804 
67 6.83431 4.10059 6.83431 
68 6.83431 1.36686 6.83431 
69 9.56804 1.36686 6.83431 
70 9.56804 4.10059 6.83431 
71 9.56804 4.10059 9.56804 
72 9.56804 1.36686 9.56804 
73 5.46745 5.46745 0 
74 5.46745 8.20117 2.73373 
75 8.20117 5.46745 2.73373 
76 8.20117 8.20117 0 
77 6.83431 6.83431 4.10059 
78 6.83431 9.56804 4.10059 
79 6.83431 9.56804 1.36686 
80 6.83431 6.83431 1.36686 
81 9.56804 6.83431 1.36686 
82 9.56804 9.56804 1.36686 
83 9.56804 9.56804 4.10059 
84 9.56804 6.83431 4.10059 
85 5.46745 5.46745 5.46745 
86 5.46745 8.20117 8.20117 
87 8.20117 5.46745 8.20117 
88 8.20117 8.20117 5.46745 
89 6.83431 6.83431 9.56804 
90 6.83431 9.56804 9.56804 
91 6.83431 9.56804 6.83431 
92 6.83431 6.83431 6.83431 
93 9.56804 6.83431 6.83431 
94 9.56804 9.56804 6.83431 
95 9.56804 9.56804 9.56804 
96 9.56804 6.83431 9.56804 
ITEM: TIMESTEP
1
ITEM: NUMBER OF ATOMS
96
ITEM: BOX BOUNDS pp pp pp
0.0000000000000000e+00 1.0934900000000001e+01
0.0000000000000000e+00 1.0934900000000001e+01
0.0000000000000000e+00 1.0934900000000001e+01
ITEM: ATOMS id xu yu zu 
1 -1.53608e-09 -1.61361e-09 1.49491e-10 
2 -1.36654e-09 2.73373 2.73372 
3 2.73373 -1.51496e-09 2.73372 
4 2.73373 2.73373 2.14619e-10 
5 1.36686 1.36686 4.10059 
6 1.36686 4.10059 4.10059 
7 1.36686 4.10059 1.36686 
8 1.36686 1.36686 1.36686 
9 4.10059 1.36686 1.36686 
10 4.10059 4.10059 1.36686 
11 4.10059 4.10059 4.10059 
12 4.10059 1.36686 4.10059 
13 -1.24226e-09 -1.37869e-09 5.46745 
14 -1.15813e-09 2.73373 8.20117 
15 2.73373 10.9349 8.20117 
16 2.73373 2.73373 5.46745 
17 1.36686 1.36686 9.56804 
18 1.36686 4.10059 9.56804 
19 1.36686 4.10059 6.83431 
20 1.36686 1.36686 6.83431 
21 4.10059 1.36686 6.83431 
22 4.10059 4.10059 6.83431 
23 4.10059 4.10059 9.56804 
24 4.10059 1.36686 9.56804 
25 -1.07619e-09 5.46745 4.22583e-10 
26 -1.15489e-09 8.20117 2.73372 
27 2.73373 5.46745 2.73372 
28 2.73373 8.20117 4.62314e-10 
29 1.36686 6.83431 4.10059 
30 1.36686 9.56804 4.10059 
31 1.36686 9.56804 1.36686 
32 1.36686 6.83431 1.36686 
33 4.10059 6.83431 1.36686 
34 4.10059 9.56804 1.36686 
35 4.10059 9.56804 4.10059 
36 4.10059 6.83431 4.10059 
37 -8.16101e-10 5.46745 5.46745 
38 -1.03498e-09 8.20117 8.20117 
39 2.73373 5.46745 8.20118 
40 2.73373 8.20117 5.46745 
41 1.36686 6.83431 9.56804 
42 1.36686 9.56804 9.56804 
43 1.36686 9.56804 6.83431 
44 1.36686 6.83431 6.83431 
45 4.10059 6.83431 6.83431 
46 4.10059 9.56804 6.83431 
47 4.10059 9.56804 9.56804 
48 4.10059 6.83431 9.56804 
49 5.46745 -1.22335e-09 4.16562e-10 
50 5.46745 2.73373 2.73372 
51 8.20117 -1.32144e-09 2.73372 
52 8.20117 2.73373 3.92064e-10 
53 6.83431 1.36686 4.10059 
54 6.83431 4.10059 4.10059 
55 6.83431 4.10059 1.36686 
56 6.83431 1.36686 1.36686 
57 9.56804 1.36686 1.36686 
58 9.56804 4.10059 1.36686 
59 9.56804 4.10059 4.10059 
60 9.56804 1.36686 4.10059 
61 5.46745 -9.6998e-10 5.46745 
62 5.46745 2.73373 8.20118 
63 8.20117 10.9349 8.20117 
64 8.20117 2.73373 5.46745 
65 6.83431 1.36686 9.56804 
66 6.83431 4.10059 9.56804 
67 6.83431 4.10059 6.83431 
68 6.83431 1.36686 6.83431 
69 9.56804 1.36686 6.83431 
70 9.56804 4.10059 6.83431 
71 9.56804 4.10059 9.56804 
72 9.56804 1.36686 9.56804 
73 5.46745 5.46745 7.17533e-10 
74 5.46745 8.20117 2.73372 
75 8.20117 5.46745 2.73372 
76 8.20117 8.20117 5.96831e-10 
77 6.83431 6.83431 4.10059 
78 6.83431 9.56804 4.10059 
79 6.83431 9.56804 1.36686 
80 6.83431 6.83431 1.36686 
81 9.56804 6.83431 1.36686 
82 9.56804 9.56804 1.36686 
83 9.56804 9.56804 4.10059 
84 9.56804 6.83431 4.10059 
85 5.46745 5.46745 5.46745 
86 5.46745 8.20117 8.20118 
87 8.20117 5.46745 8.20118 
88 8.20117 8.20117 5.46745 
89 6.83431 6.83431 9.56804 
90 6.83431 9.56804 9.56804 
91 6.83431 9.56804 6.83431 
92 6.83431 6.83431 6.83431 
93 9.56804 6.83431 6.83431 
94 9.56804 9.56804 6.83431 
95 9.56804 9.56804 9.56804 
96 9.56804 6.83431 9.56804 
