ITEM: TIMESTEP
0
ITEM: NUMBER OF ATOMS
96
ITEM: BOX BOUNDS pp pp pp
0.0000000000000000e+00 1.0934900000000001e+01
0.0000000000000000e+00 1.0934900000000001e+01
0.0000000000000000e+00 1.0934900000000001e+01
ITEM: ATOMS id xu yu zu q 
1 0 0 0 1.39695 
2 0 2.73373 2.73373 1.39695 
3 2.73373 0 2.73373 1.39695 
4 2.73373 2.73373 0 1.39695 
5 1.36686 1.36686 4.10059 -0.698477 
6 1.36686 4.10059 4.10059 -0.698477 
7 1.36686 4.10059 1.36686 -0.698477 
8 1.36686 1.36686 1.36686 -0.698477 
9 4.10059 1.36686 1.36686 -0.698477 
10 4.10059 4.10059 1.36686 -0.698477 
11 4.10059 4.10059 4.10059 -0.698477 
12 4.10059 1.36686 4.10059 -0.698477 
13 0 0 5.46745 1.39695 
14 0 2.73373 8.20117 1.39695 
15 2.73373 10.9349 8.20117 1.39695 
16 2.73373 2.73373 5.46745 1.39695 
17 1.36686 1.36686 9.56804 -0.698477 
18 1.36686 4.10059 9.56804 -0.698477 
19 1.36686 4.10059 6.83431 -0.698477 
20 1.36686 1.36686 6.83431 -0.698477 
21 4.10059 1.36686 6.83431 -0.698477 
22 4.10059 4.10059 6.83431 -0.698477 
23 4.10059 4.10059 9.56804 -0.698477 
24 4.10059 1.36686 9.56804 -0.698477 
25 0 5.46745 0 1.39695 
26 0 8.20117 2.73373 1.39695 
27 2.73373 5.46745 2.73373 1.39695 
28 2.73373 8.20117 0 1.39695 
29 1.36686 6.83431 4.10059 -0.698477 
30 1.36686 9.56804 4.10059 -0.698477 
31 1.36686 9.56804 1.36686 -0.698477 
32 1.36686 6.83431 1.36686 -0.698477 
33 4.10059 6.83431 1.36686 -0.698477 
34 4.10059 9.56804 1.36686 -0.698477 
35 4.10059 9.56804 4.10059 -0.698477 
36 4.10059 6.83431 4.10059 -0.698477 
37 0 5.46745 5.46745 1.39695 
38 0 8.20117 8.20117 1.39695 
39 2.73373 5.46745 8.20117 1.39695 
40 2.73373 8.20117 5.46745 1.39695 
41 1.36686 6.83431 9.56804 -0.698477 
42 1.36686 9.56804 9.56804 -0.698477 
43 1.36686 9.56804 6.83431 -0.698477 
44 1.36686 6.83431 6.83431 -0.698477 
45 4.10059 6.83431 6.83431 -0.698477 
46 4.10059 9.56804 6.83431 -0.698477 
47 4.10059 9.56804 9.56804 -0.698477 
48 4.10059 6.83431 9.56804 -0.698477 
49 5.46745 0 0 1.39695 
50 5.46745 2.73373 2.73373 1.39695 
51 8.20117 0 2.73373 1.39695 
52 8.20117 2.73373 0 1.39695 
53 6.83431 1.36686 4.10059 -0.698477 
54 6.83431 4.10059 4.10059 -0.698477 
55 6.83431 4.10059 1.36686 -0.698477 
56 6.83431 1.36686 1.36686 -0.698477 
57 9.56804 1.36686 1.36686 -0.698477 
58 9.56804 4.10059 1.36686 -0.698477 
59 9.56804 4.10059 4.10059 -0.698477 
60 9.56804 1.36686 4.10059 -0.698477 
61 5.46745 0 5.46745 1.39695 
62 5.46745 2.73373 8.20117 1.39695 
63 8.20117 10.9349 8.20117 1.39695 
64 8.20117 2.73373 5.46745 1.39695 
65 6.83431 1.36686 9.56804 -0.698477 
66 6.83431 4.10059 9.56804 -0.698477 
67 6.83431 4.10059 6.83431 -0.698477 
68 6.83431 1.36686 6.83431 -0.698477 
69 9.56804 1.36686 6.83431 -0.698477 
70 9.56804 4.10059 6.83431 -0.698477 
71 9.56804 4.10059 9.56804 -0.698477 
72 9.56804 1.36686 9.56804 -0.698477 
73 5.46745 5.46745 0 1.39695 
74 5.46745 8.20117 2.73373 1.39695 
75 8.20117 5.46745 2.73373 1.39695 
76 8.20117 8.20117 0 1.39695 
77 6.83431 6.83431 4.10059 -0.698477 
78 6.83431 9.56804 4.10059 -0.698477 
79 6.83431 9.56804 1.36686 -0.698477 
80 6.83431 6.83431 1.36686 -0.698477 
81 9.56804 6.83431 1.36686 -0.698477 
82 9.56804 9.56804 1.36686 -0.698477 
83 9.56804 9.56804 4.10059 -0.698477 
84 9.56804 6.83431 4.10059 -0.698477 
85 5.46745 5.46745 5.46745 1.39695 
86 5.46745 8.20117 8.20117 1.39695 
87 8.20117 5.46745 8.20117 1.39695 
88 8.20117 8.20117 5.46745 1.39695 
89 6.83431 6.83431 9.56804 -0.698477 
90 6.83431 9.56804 9.56804 -0.698477 
91 6.83431 9.56804 6.83431 -0.698477 
92 6.83431 6.83431 6.83431 -0.698477 
93 9.56804 6.83431 6.83431 -0.698477 
94 9.56804 9.56804 6.83431 -0.698477 
95 9.56804 9.56804 9.56804 -0.698477 
96 9.56804 6.83431 9.56804 -0.698477 
ITEM: TIMESTEP
1
ITEM: NUMBER OF ATOMS
96
ITEM: BOX BOUNDS pp pp pp
0.0000000000000000e+00 1.0934900000000001e+01
0.0000000000000000e+00 1.0934900000000001e+01
0.0000000000000000e+00 1.0934900000000001e+01
ITEM: ATOMS id xu yu zu q 
1 -1.53608e-09 -1.61361e-09 1.49491e-10 1.39695 
2 -1.36654e-09 2.73373 2.73372 1.39695 
3 2.73373 -1.51496e-09 2.73372 1.39695 
4 2.73373 2.73373 2.14619e-10 1.39695 
5 1.36686 1.36686 4.10059 -0.698477 
6 1.36686 4.10059 4.10059 -0.698477 
7 1.36686 4.10059 1.36686 -0.698477 
8 1.36686 1.36686 1.36686 -0.698477 
9 4.10059 1.36686 1.36686 -0.698477 
10 4.10059 4.10059 1.36686 -0.698477 
11 4.10059 4.10059 4.10059 -0.698477 
12 4.10059 1.36686 4.10059 -0.698477 
13 -1.24226e-09 -1.37869e-09 5.46745 1.39695 
14 -1.15813e-09 2.73373 8.20117 1.39695 
15 2.73373 10.9349 8.20117 1.39695 
16 2.73373 2.73373 5.46745 1.39695 
17 1.36686 1.36686 9.56804 -0.698477 
18 1.36686 4.10059 9.56804 -0.698477 
19 1.36686 4.10059 6.83431 -0.698477 
20 1.36686 1.36686 6.83431 -0.698477 
21 4.10059 1.36686 6.83431 -0.698477 
22 4.10059 4.10059 6.83431 -0.698477 
23 4.10059 4.10059 9.56804 -0.698477 
24 4.10059 1.36686 9.56804 -0.698477 
25 -1.07619e-09 5.46745 4.22583e-10 1.39695 
26 -1.15489e-09 8.20117 2.73372 1.39695 
27 2.73373 5.46745 2.73372 1.39695 
28 2.73373 8.20117 4.62314e-10 1.39695 
29 1.36686 6.83431 4.10059 -0.698477 
30 1.36686 9.56804 4.10059 -0.698477 
31 1.36686 9.56804 1.36686 -0.698477 
32 1.36686 6.83431 1.36686 -0.698477 
33 4.10059 6.83431 1.36686 -0.698477 
34 4.10059 9.56804 1.36686 -0.698477 
35 4.10059 9.56804 4.10059 -0.698477 
36 4.10059 6.83431 4.10059 -0.698477 
37 -8.16101e-10 5.46745 5.46745 1.39695 
38 -1.03498e-09 8.20117 8.20117 1.39695 
39 2.73373 5.46745 8.20118 1.39695 
40 2.73373 8.20117 5.46745 1.39695 
41 1.36686 6.83431 9.56804 -0.698477 
42 1.36686 9.56804 9.56804 -0.698477 
43 1.36686 9.56804 6.83431 -0.698477 
44 1.36686 6.83431 6.83431 -0.698477 
45 4.10059 6.83431 6.83431 -0.698477 
46 4.10059 9.56804 6.83431 -0.698477 
47 4.10059 9.56804 9.56804 -0.698477 
48 4.10059 6.83431 9.56804 -0.698477 
49 5.46745 -1.22335e-09 4.16562e-10 1.39695 
50 5.46745 2.73373 2.73372 1.39695 
51 8.20117 -1.32144e-09 2.73372 1.39695 
52 8.20117 2.73373 3.92064e-10 1.39695 
53 6.83431 1.36686 4.10059 -0.698477 
54 6.83431 4.10059 4.10059 -0.698477 
55 6.83431 4.10059 1.36686 -0.698477 
56 6.83431 1.36686 1.36686 -0.698477 
57 9.56804 1.36686 1.36686 -0.698477 
58 9.56804 4.10059 1.36686 -0.698477 
59 9.56804 4.10059 4.10059 -0.698477 
60 9.56804 1.36686 4.10059 -0.698477 
61 5.46745 -9.6998e-10 5.46745 1.39695 
62 5.46745 2.73373 8.20118 1.39695 
63 8.20117 10.9349 8.20117 1.39695 
64 8.20117 2.73373 5.46745 1.39695 
65 6.83431 1.36686 9.56804 -0.698477 
66 6.83431 4.10059 9.56804 -0.698477 
67 6.83431 4.10059 6.83431 -0.698477 
68 6.83431 1.36686 6.83431 -0.698477 
69 9.56804 1.36686 6.83431 -0.698477 
70 9.56804 4.10059 6.83431 -0.698477 
71 9.56804 4.10059 9.56804 -0.698477 
72 9.56804 1.36686 9.56804 -0.698477 
73 5.46745 5.46745 7.17533e-10 1.39695 
74 5.46745 8.20117 2.73372 1.39695 
75 8.20117 5.46745 2.73372 1.39695 
76 8.20117 8.20117 5.96831e-10 1.39695 
77 6.83431 6.83431 4.10059 -0.698477 
78 6.83431 9.56804 4.10059 -0.698477 
79 6.83431 9.56804 1.36686 -0.698477 
80 6.83431 6.83431 1.36686 -0.698477 
81 9.56804 6.83431 1.36686 -0.698477 
82 9.56804 9.56804 1.36686 -0.698477 
83 9.56804 9.56804 4.10059 -0.698477 
84 9.56804 6.83431 4.10059 -0.698477 
85 5.46745 5.46745 5.46745 1.39695 
86 5.46745 8.20117 8.20118 1.39695 
87 8.20117 5.46745 8.20118 1.39695 
88 8.20117 8.20117 5.46745 1.39695 
89 6.83431 6.83431 9.56804 -0.698477 
90 6.83431 9.56804 9.56804 -0.698477 
91 6.83431 9.56804 6.83431 -0.698477 
92 6.83431 6.83431 6.83431 -0.698477 
93 9.56804 6.83431 6.83431 -0.698477 
94 9.56804 9.56804 6.83431 -0.698477 
95 9.56804 9.56804 9.56804 -0.698477 
96 9.56804 6.83431 9.56804 -0.698477 
