vacancy_slab_[368, 524].lmp (written by ASE) 

672 	 atoms 
2  atom types
0.0             15.46428487  xlo xhi
0.0      13.392463548779334  ylo yhi
0.0      287.25368774977443  zlo zhi
    -7.7321424349999983     -1.9330355962906571     -1.1160386218715395  xy xz yz


Masses

      1    140.116       # Ce
      2    15.999       # O

Atoms 

         1         1   4.0        1.9330356018105281       1.1160386250584389       285.67536948989641
         2         1   4.0        3.8660712105605293       4.4641545122532733       285.67536948989641
         3         1   4.0        5.7991068193105297       7.8122703994481064       285.67536948989641
         4         1   4.0        7.7321424280605306       11.16038628664294       285.67536948989641
         5         1   4.0        5.7991068193105297       1.1160386250584389       285.67536948989641
         6         1   4.0        7.7321424280605306       4.4641545122532733       285.67536948989641
         7         1   4.0        9.6651780368105324       7.8122703994481064       285.67536948989641
         8         1   4.0        11.598213645560531       11.16038628664294       285.67536948989641
         9         1   4.0        9.6651780368105289       1.1160386250584389       285.67536948989641
         10         1   4.0        11.598213645560531       4.4641545122532733       285.67536948989641
         11         1   4.0        13.531249254310531       7.8122703994481064       285.67536948989641
         12         1   4.0        15.464284863060531       11.16038628664294       285.67536948989641
         13         1   4.0        13.531249254310529       1.1160386250584389       285.67536948989641
         14         1   4.0        15.464284863060531       4.4641545122532733       285.67536948989641
         15         1   4.0        17.397320471810531       7.8122703994481064       285.67536948989641
         16         1   4.0        19.330356080560531       11.16038628664294       285.67536948989641
         17         1   4.0        3.8660711524325455       2.232077220563176       282.5187358426773
         18         1   4.0        5.7991067611825455       5.5801931077580091       282.5187358426773
         19         1   4.0        7.7321423699325456       8.9283089949528449       282.5187358426773
         20         1   4.0        9.6651779786825482       12.276424882147676       282.5187358426773
         21         1   4.0        7.7321423699325456       2.232077220563176       282.5187358426773
         22         1   4.0        9.6651779786825465       5.5801931077580091       282.5187358426773
         23         1   4.0        11.598213587432546       8.9283089949528449       282.5187358426773
         24         1   4.0        13.531249196182547       12.276424882147676       282.5187358426773
         25         1   4.0        11.598213587432548       2.232077220563176       282.5187358426773
         26         1   4.0        13.531249196182548       5.5801931077580091       282.5187358426773
         27         1   4.0        15.46428480493255       8.9283089949528449       282.5187358426773
         28         1   4.0        17.397320413682547       12.276424882147676       282.5187358426773
         29         1   4.0        15.46428480493255       2.232077220563176       282.5187358426773
         30         1   4.0        17.39732041368255       5.5801931077580091       282.5187358426773
         31         1   4.0        19.33035602243255       8.9283089949528449       282.5187358426773
         32         1   4.0        21.263391631182547       12.276424882147676       282.5187358426773
         33         1   4.0        1.0876883405659781e-07       6.2797715411989867e-08       279.36210219545808
         34         1   4.0        1.9330357175188351       3.3481159499925495       279.36210219545808
         35         1   4.0        3.8660713262688358       6.6962318371873826       279.36210219545808
         36         1   4.0        5.7991069350188358       10.044347724382217       279.36210219545808
         37         1   4.0        3.866071326268834       6.2797715411989867e-08       279.36210219545808
         38         1   4.0        5.7991069350188349       3.3481159499925495       279.36210219545808
         39         1   4.0        7.7321425437688358       6.6962318371873826       279.36210219545808
         40         1   4.0        9.6651781525188358       10.044347724382217       279.36210219545808
         41         1   4.0        7.732142543768834       6.2797715411989867e-08       279.36210219545808
         42         1   4.0        9.6651781525188341       3.3481159499925495       279.36210219545808
         43         1   4.0        11.598213761268836       6.6962318371873826       279.36210219545808
         44         1   4.0        13.531249370018836       10.044347724382217       279.36210219545808
         45         1   4.0        11.598213761268834       6.2797715411989867e-08       279.36210219545808
         46         1   4.0        13.531249370018834       3.3481159499925495       279.36210219545808
         47         1   4.0        15.464284978768836       6.6962318371873826       279.36210219545808
         48         1   4.0        17.397320587518834       10.044347724382217       279.36210219545808
         49         1   4.0        1.9330356593908502       1.1160386583024524       276.20546854823897
         50         1   4.0        3.8660712681408511       4.4641545454972871       276.20546854823897
         51         1   4.0        5.7991068768908534       7.8122704326921202       276.20546854823897
         52         1   4.0        7.7321424856408525       11.160386319886953       276.20546854823897
         53         1   4.0        5.7991068768908507       1.1160386583024524       276.20546854823897
         54         1   4.0        7.7321424856408507       4.4641545454972871       276.20546854823897
         55         1   4.0        9.6651780943908516       7.8122704326921202       276.20546854823897
         56         1   4.0        11.598213703140852       11.160386319886953       276.20546854823897
         57         1   4.0        9.6651780943908499       1.1160386583024524       276.20546854823897
         58         1   4.0        11.598213703140852       4.4641545454972871       276.20546854823897
         59         1   4.0        13.531249311890852       7.8122704326921202       276.20546854823897
         60         1   4.0        15.464284920640852       11.160386319886953       276.20546854823897
         61         1   4.0        13.53124931189085       1.1160386583024524       276.20546854823897
         62         1   4.0        15.464284920640852       4.4641545454972871       276.20546854823897
         63         1   4.0        17.397320529390853       7.8122704326921202       276.20546854823897
         64         1   4.0        19.330356138140854       11.160386319886953       276.20546854823897
         65         1   4.0        3.866071210012866       2.2320772538071907       273.0488349010198
         66         1   4.0        5.7991068187628665       5.5801931410020238       273.0488349010198
         67         1   4.0        7.7321424275128665       8.9283090281968587       273.0488349010198
         68         1   4.0        9.6651780362628674       12.27642491539169       273.0488349010198
         69         1   4.0        7.7321424275128665       2.2320772538071907       273.0488349010198
         70         1   4.0        9.6651780362628674       5.5801931410020238       273.0488349010198
         71         1   4.0        11.598213645012867       8.9283090281968587       273.0488349010198
         72         1   4.0        13.531249253762867       12.27642491539169       273.0488349010198
         73         1   4.0        11.598213645012869       2.2320772538071907       273.0488349010198
         74         1   4.0        13.531249253762869       5.5801931410020238       273.0488349010198
         75         1   4.0        15.464284862512873       8.9283090281968587       273.0488349010198
         76         1   4.0        17.397320471262869       12.27642491539169       273.0488349010198
         77         1   4.0        15.464284862512873       2.2320772538071907       273.0488349010198
         78         1   4.0        17.397320471262873       5.5801931410020238       273.0488349010198
         79         1   4.0        19.330356080012873       8.9283090281968587       273.0488349010198
         80         1   4.0        21.263391688762869       12.27642491539169       273.0488349010198
         81         1   4.0        -6.5615118391208056e-08       -3.7882906494913826e-08       269.89220125380069
         82         1   4.0        1.9330355431348816       3.3481158493119274       269.89220125380069
         83         1   4.0        3.8660711518848832       6.6962317365067605       269.89220125380069
         84         1   4.0        5.7991067606348832       10.044347623701597       269.89220125380069
         85         1   4.0        3.8660711518848814       -3.7882906494913826e-08       269.89220125380069
         86         1   4.0        5.7991067606348823       3.3481158493119274       269.89220125380069
         87         1   4.0        7.732142369384885       6.6962317365067605       269.89220125380069
         88         1   4.0        9.6651779781348832       10.044347623701597       269.89220125380069
         89         1   4.0        7.7321423693848814       -3.7882906494913826e-08       269.89220125380069
         90         1   4.0        9.6651779781348814       3.3481158493119274       269.89220125380069
         91         1   4.0        11.598213586884881       6.6962317365067605       269.89220125380069
         92         1   4.0        13.531249195634881       10.044347623701597       269.89220125380069
         93         1   4.0        11.598213586884881       -3.7882906494913826e-08       269.89220125380069
         94         1   4.0        13.531249195634881       3.3481158493119274       269.89220125380069
         95         1   4.0        15.464284804384882       6.6962317365067605       269.89220125380069
         96         1   4.0        17.397320413134882       10.044347623701597       269.89220125380069
         97         1   4.0        1.9330357169711709       1.1160386915464664       266.73556760658153
         98         1   4.0        3.8660713257211712       4.4641545787413008       266.73556760658153
         99         1   4.0        5.7991069344711725       7.8122704659361339       266.73556760658153
         100         1   4.0        7.7321425432211734       11.160386353130967       266.73556760658153
         101         1   4.0        5.7991069344711708       1.1160386915464664       266.73556760658153
         102         1   4.0        7.7321425432211717       4.4641545787413008       266.73556760658153
         103         1   4.0        9.6651781519711708       7.8122704659361339       266.73556760658153
         104         1   4.0        11.598213760721171       11.160386353130967       266.73556760658153
         105         1   4.0        9.6651781519711708       1.1160386915464664       266.73556760658153
         106         1   4.0        11.598213760721171       4.4641545787413008       266.73556760658153
         107         1   4.0        13.531249369471173       7.8122704659361339       266.73556760658153
         108         1   4.0        15.464284978221173       11.160386353130967       266.73556760658153
         109         1   4.0        13.531249369471171       1.1160386915464664       266.73556760658153
         110         1   4.0        15.464284978221173       4.4641545787413008       266.73556760658153
         111         1   4.0        17.397320586971173       7.8122704659361339       266.73556760658153
         112         1   4.0        19.330356195721173       11.160386353130967       266.73556760658153
         113         1   4.0        3.866071267593187       2.232077287051204       263.57893395936236
         114         1   4.0        5.7991068763431892       5.5801931742460376       263.57893395936236
         115         1   4.0        7.7321424850931884       8.9283090614408724       263.57893395936236
         116         1   4.0        9.6651780938431884       12.276424948635704       263.57893395936236
         117         1   4.0        7.7321424850931866       2.232077287051204       263.57893395936236
         118         1   4.0        9.6651780938431884       5.5801931742460376       263.57893395936236
         119         1   4.0        11.598213702593188       8.9283090614408724       263.57893395936236
         120         1   4.0        13.531249311343188       12.276424948635704       263.57893395936236
         121         1   4.0        11.59821370259319       2.232077287051204       263.57893395936236
         122         1   4.0        13.53124931134319       5.5801931742460376       263.57893395936236
         123         1   4.0        15.464284920093194       8.9283090614408724       263.57893395936236
         124         1   4.0        17.397320528843188       12.276424948635704       263.57893395936236
         125         1   4.0        15.464284920093187       2.232077287051204       263.57893395936236
         126         1   4.0        17.397320528843192       5.5801931742460376       263.57893395936236
         127         1   4.0        19.330356137593192       8.9283090614408724       263.57893395936236
         128         1   4.0        21.263391746343189       12.276424948635704       263.57893395936236
         129         1   4.0        -8.0347977308853811e-09       -4.6388927724745162e-09       260.42230031214325
         130         1   4.0        1.9330356007152028       3.3481158825559416       260.42230031214325
         131         1   4.0        3.8660712094652032       6.6962317697507743       260.42230031214325
         132         1   4.0        5.7991068182152041       10.044347656945611       260.42230031214325
         133         1   4.0        3.8660712094652023       -4.6388927724745162e-09       260.42230031214325
         134         1   4.0        5.7991068182152032       3.3481158825559416       260.42230031214325
         135         1   4.0        7.7321424269652042       6.6962317697507743       260.42230031214325
         136         1   4.0        9.6651780357152042       10.044347656945611       260.42230031214325
         137         1   4.0        7.7321424269652024       -4.6388927724745162e-09       260.42230031214325
         138         1   4.0        9.6651780357152024       3.3481158825559416       260.42230031214325
         139         1   4.0        11.598213644465201       6.6962317697507743       260.42230031214325
         140         1   4.0        13.531249253215204       10.044347656945611       260.42230031214325
         141         1   4.0        11.598213644465202       -4.6388927724745162e-09       260.42230031214325
         142         1   4.0        13.531249253215202       3.3481158825559416       260.42230031214325
         143         1   4.0        15.464284861965202       6.6962317697507743       260.42230031214325
         144         1   4.0        17.397320470715201       10.044347656945611       260.42230031214325
         145         1   4.0        1.9330355425872183       1.116038590865845       257.26566666492408
         146         1   4.0        3.866071151337219       4.4641544780606779       257.26566666492408
         147         1   4.0        5.799106760087219       7.812270365255511       257.26566666492408
         148         1   4.0        7.7321423688372191       11.160386252450346       257.26566666492408
         149         1   4.0        5.7991067600872181       1.116038590865845       257.26566666492408
         150         1   4.0        7.7321423688372191       4.4641544780606779       257.26566666492408
         151         1   4.0        9.6651779775872182       7.812270365255511       257.26566666492408
         152         1   4.0        11.598213586337218       11.160386252450346       257.26566666492408
         153         1   4.0        9.6651779775872182       1.116038590865845       257.26566666492408
         154         1   4.0        11.598213586337218       4.4641544780606779       257.26566666492408
         155         1   4.0        13.531249195087218       7.812270365255511       257.26566666492408
         156         1   4.0        15.464284803837218       11.160386252450346       257.26566666492408
         157         1   4.0        13.531249195087218       1.116038590865845       257.26566666492408
         158         1   4.0        15.464284803837218       4.4641544780606779       257.26566666492408
         159         1   4.0        17.39732041258722       7.812270365255511       257.26566666492408
         160         1   4.0        19.33035602133722       11.160386252450346       257.26566666492408
         161         1   4.0        3.866071344503863       2.2320773314556033       254.10903014516805
         162         1   4.0        5.7991069532538653       5.5801932186504377       254.10903014516805
         163         1   4.0        7.7321425620038653       8.9283091058452726       254.10903014516805
         164         1   4.0        9.6651781707538653       12.276424993040104       254.10903014516805
         165         1   4.0        7.7321425620038635       2.2320773314556033       254.10903014516805
         166         1   4.0        9.6651781707538635       5.5801932186504377       254.10903014516805
         167         1   4.0        11.598213779503865       8.9283091058452726       254.10903014516805
         168         1   4.0        13.531249388253865       12.276424993040104       254.10903014516805
         169         1   4.0        11.598213779503867       2.2320773314556033       254.10903014516805
         170         1   4.0        13.531249388253867       5.5801932186504377       254.10903014516805
         171         1   4.0        15.464284997003871       8.9283091058452726       254.10903014516805
         172         1   4.0        17.397320605753865       12.276424993040104       254.10903014516805
         173         1   4.0        15.464284997003864       2.2320773314556033       254.10903014516805
         174         1   4.0        17.397320605753869       5.5801932186504377       254.10903014516805
         175         1   4.0        19.330356214503869       8.9283091058452726       254.10903014516805
         176         1   4.0        21.263391823253865       12.276424993040104       254.10903014516805
         177         1   4.0        6.8875879211518856e-08       3.9765507224758444e-08       250.95239649794891
         178         1   4.0        1.9330356776258799       3.3481159269603418       250.95239649794891
         179         1   4.0        3.8660712863758802       6.6962318141551744       250.95239649794891
         180         1   4.0        5.7991068951258802       10.044347701350011       250.95239649794891
         181         1   4.0        3.8660712863758784       3.9765507224758444e-08       250.95239649794891
         182         1   4.0        5.7991068951258793       3.3481159269603418       250.95239649794891
         183         1   4.0        7.7321425038758793       6.6962318141551744       250.95239649794891
         184         1   4.0        9.6651781126258811       10.044347701350011       250.95239649794891
         185         1   4.0        7.7321425038758793       3.9765507224758444e-08       250.95239649794891
         186         1   4.0        9.6651781126258793       3.3481159269603418       250.95239649794891
         187         1   4.0        11.598213721375878       6.6962318141551744       250.95239649794891
         188         1   4.0        13.531249330125881       10.044347701350011       250.95239649794891
         189         1   4.0        11.598213721375879       3.9765507224758444e-08       250.95239649794891
         190         1   4.0        13.531249330125879       3.3481159269603418       250.95239649794891
         191         1   4.0        15.464284938875879       6.6962318141551744       250.95239649794891
         192         1   4.0        17.397320547625881       10.044347701350011       250.95239649794891
         193         1   4.0        1.9330356194978955       1.1160386352702449       247.79576285072977
         194         1   4.0        3.8660712282478951       4.4641545224650772       247.79576285072977
         195         1   4.0        5.7991068369978969       7.8122704096599112       247.79576285072977
         196         1   4.0        7.732142445747896       11.160386296854746       247.79576285072977
         197         1   4.0        5.7991068369978933       1.1160386352702449       247.79576285072977
         198         1   4.0        7.7321424457478942       4.4641545224650772       247.79576285072977
         199         1   4.0        9.6651780544978951       7.8122704096599112       247.79576285072977
         200         1   4.0        11.598213663247895       11.160386296854746       247.79576285072977
         201         1   4.0        9.6651780544978951       1.1160386352702449       247.79576285072977
         202         1   4.0        11.598213663247895       4.4641545224650772       247.79576285072977
         203         1   4.0        13.531249271997895       7.8122704096599112       247.79576285072977
         204         1   4.0        15.464284880747895       11.160386296854746       247.79576285072977
         205         1   4.0        13.531249271997895       1.1160386352702449       247.79576285072977
         206         1   4.0        15.464284880747895       4.4641545224650772       247.79576285072977
         207         1   4.0        17.397320489497897       7.8122704096599112       247.79576285072977
         208         1   4.0        19.330356098247897       11.160386296854746       247.79576285072977
         209         1   4.0        3.8660711701199104       2.2320772307749817       244.63912920351063
         210         1   4.0        5.7991067788699127       5.5801931179698165       244.63912920351063
         211         1   4.0        7.7321423876199127       8.9283090051646479       244.63912920351063
         212         1   4.0        9.6651779963699127       12.276424892359483       244.63912920351063
         213         1   4.0        7.7321423876199145       2.2320772307749817       244.63912920351063
         214         1   4.0        9.6651779963699145       5.5801931179698165       244.63912920351063
         215         1   4.0        11.598213605119915       8.9283090051646479       244.63912920351063
         216         1   4.0        13.531249213869913       12.276424892359483       244.63912920351063
         217         1   4.0        11.598213605119915       2.2320772307749817       244.63912920351063
         218         1   4.0        13.531249213869913       5.5801931179698165       244.63912920351063
         219         1   4.0        15.464284822619913       8.9283090051646479       244.63912920351063
         220         1   4.0        17.397320431369913       12.276424892359483       244.63912920351063
         221         1   4.0        15.464284822619913       2.2320772307749817       244.63912920351063
         222         1   4.0        17.397320431369913       5.5801931179698165       244.63912920351063
         223         1   4.0        19.330356040119913       8.9283090051646479       244.63912920351063
         224         1   4.0        21.263391648869913       12.276424892359483       244.63912920351063
         225         2   -2.0        1.0907689429933577e-07       6.2975574395005474e-08       286.46453005610385
         226         2   -2.0        1.9330357178268951       3.3481159501704094       286.46453005610385
         227         2   -2.0        3.8660713265768951       6.6962318373652412       286.46453005610385
         228         2   -2.0        5.799106935326896       10.044347724560074       286.46453005610385
         229         2   -2.0        3.8660713265768951       6.2975574395005474e-08       286.46453005610385
         230         2   -2.0        5.799106935326896       3.3481159501704094       286.46453005610385
         231         2   -2.0        7.7321425440768969       6.6962318373652412       286.46453005610385
         232         2   -2.0        9.665178152826897       10.044347724560074       286.46453005610385
         233         2   -2.0        7.7321425440768952       6.2975574395005474e-08       286.46453005610385
         234         2   -2.0        9.6651781528268952       3.3481159501704094       286.46453005610385
         235         2   -2.0        11.598213761576895       6.6962318373652412       286.46453005610385
         236         2   -2.0        13.531249370326893       10.044347724560074       286.46453005610385
         237         2   -2.0        11.598213761576895       6.2975574395005474e-08       286.46453005610385
         238         2   -2.0        13.531249370326895       3.3481159501704094       286.46453005610385
         239         2   -2.0        15.464284979076897       6.6962318373652412       286.46453005610385
         240         2   -2.0        17.397320587826897       10.044347724560074       286.46453005610385
         241         2   -2.0        3.8660713071780801       2.2320773099055535       284.88621179622584
         242         2   -2.0        5.799106915928081       5.580193197100388       284.88621179622584
         243         2   -2.0        7.7321425246780811       8.928309084295222       284.88621179622584
         244         2   -2.0        9.665178133428082       12.276424971490055       284.88621179622584
         245         2   -2.0        7.7321425246780811       2.2320773099055535       284.88621179622584
         246         2   -2.0        9.665178133428082       5.580193197100388       284.88621179622584
         247         2   -2.0        11.598213742178084       8.928309084295222       284.88621179622584
         248         2   -2.0        13.531249350928082       12.276424971490055       284.88621179622584
         249         2   -2.0        11.598213742178082       2.2320773099055535       284.88621179622584
         250         2   -2.0        13.531249350928082       5.580193197100388       284.88621179622584
         251         2   -2.0        15.464284959678082       8.928309084295222       284.88621179622584
         252         2   -2.0        17.397320568428082       12.276424971490055       284.88621179622584
         253         2   -2.0        15.464284959678082       2.2320773099055535       284.88621179622584
         254         2   -2.0        17.397320568428086       5.580193197100388       284.88621179622584
         255         2   -2.0        19.330356177178082       8.928309084295222       284.88621179622584
         256         2   -2.0        21.263391785928082       12.276424971490055       284.88621179622584
         257         2   -2.0        1.9330356596989107       1.1160386584803119       283.30789640888474
         258         2   -2.0        3.8660712684489114       4.4641545456751448       283.30789640888474
         259         2   -2.0        5.7991068771989109       7.8122704328699779       283.30789640888474
         260         2   -2.0        7.732142485948911       11.160386320064811       283.30789640888474
         261         2   -2.0        5.79910687719891       1.1160386584803119       283.30789640888474
         262         2   -2.0        7.732142485948911       4.4641545456751448       283.30789640888474
         263         2   -2.0        9.665178094698911       7.8122704328699779       283.30789640888474
         264         2   -2.0        11.598213703448911       11.160386320064811       283.30789640888474
         265         2   -2.0        9.6651780946989128       1.1160386584803119       283.30789640888474
         266         2   -2.0        11.598213703448913       4.4641545456751448       283.30789640888474
         267         2   -2.0        13.531249312198913       7.8122704328699779       283.30789640888474
         268         2   -2.0        15.464284920948916       11.160386320064811       283.30789640888474
         269         2   -2.0        13.531249312198913       1.1160386584803119       283.30789640888474
         270         2   -2.0        15.464284920948909       4.4641545456751448       283.30789640888474
         271         2   -2.0        17.397320529698909       7.8122704328699779       283.30789640888474
         272         2   -2.0        19.330356138448916       11.160386320064811       283.30789640888474
         273         2   -2.0        3.155009644223549e-08       1.8215456405975561e-08       281.72957814900673
         274         2   -2.0        1.9330356403000974       3.3481159054102902       281.72957814900673
         275         2   -2.0        3.8660712490500964       6.6962317926051229       281.72957814900673
         276         2   -2.0        5.7991068578000977       10.044347679799957       281.72957814900673
         277         2   -2.0        3.8660712490500964       1.8215456405975561e-08       281.72957814900673
         278         2   -2.0        5.7991068578000977       3.3481159054102902       281.72957814900673
         279         2   -2.0        7.7321424665500977       6.6962317926051229       281.72957814900673
         280         2   -2.0        9.6651780753000978       10.044347679799957       281.72957814900673
         281         2   -2.0        7.7321424665500942       1.8215456405975561e-08       281.72957814900673
         282         2   -2.0        9.665178075300096       3.3481159054102902       281.72957814900673