ITEM: TIMESTEP
0
ITEM: NUMBER OF ATOMS
1150
ITEM: BOX BOUNDS pp pp pp
-2.0000000000000000e+01 2.0000000000000000e+01
-2.0000000000000000e+01 2.0000000000000000e+01
-2.0000000000000000e+01 2.0000000000000000e+01
ITEM: ATOMS id type xs ys zs
592 1 0.260489 0.0360581 0.0287521
994 1 0.277983 0.0602133 0.00575423
134 1 0.0800918 0.102994 0.0211149
862 1 0.0397523 0.116083 0.00559421
5 1 0.218249 0.110908 0.0304874
954 1 0.217777 0.175643 0.02556
679 1 0.669794 0.233238 0.0237416
791 1 0.872686 0.230738 0.0104766
564 1 0.755891 0.252693 0.00489433
720 1 0.249859 0.375975 0.00484246
782 1 0.979024 0.453323 0.0060762
757 1 0.0842796 0.487536 0.0235601
682 1 0.761318 0.479028 0.0309962
1103 2 0.635542 0.546335 0.00266244
931 1 0.791845 0.537456 0.018038
310 1 0.0504913 0.606832 0.0335284
969 1 0.717657 0.658893 0.0133156
808 1 0.0309829 0.729161 0.01473
110 1 0.25922 0.717678 0.0114865
923 1 0.95435 0.754983 0.00210426
399 1 0.813521 0.840247 0.0281363
193 1 0.882004 0.84804 0.0109879
648 1 0.785617 0.863868 0.0274242
493 1 0.805431 0.870769 0.0187403
362 1 0.20015 0.92307 0.0310643
303 1 0.342173 0.908193 0.00660048
178 1 0.0791319 0.969716 0.0246365
438 1 0.154518 0.989887 0.0247993
445 1 0.246742 0.989648 0.00687437
356 1 0.474087 0.979593 0.0133665
538 1 0.840661 0.986851 0.00120754
587 1 0.816092 0.0515881 0.0409218
503 1 0.989831 0.0838975 0.0659378
80 1 0.063851 0.143574 0.0532023
369 1 0.244551 0.175526 0.0613526
376 1 0.565846 0.172253 0.0533328
685 1 0.283644 0.204085 0.0609379
976 1 0.843708 0.203965 0.0428538
161 1 0.351534 0.238118 0.0488734
981 1 0.749999 0.236036 0.0537015
585 1 0.375455 0.273103 0.0447315
346 1 0.992521 0.299877 0.0362404
867 1 0.184706 0.348847 0.0645416
827 1 0.803733 0.332305 0.0511656
170 1 0.0244199 0.425659 0.0531398
611 1 0.799512 0.399181 0.0389982
1003 2 0.337981 0.443284 0.0509865
865 1 0.933984 0.469866 0.04218
545 1 0.826295 0.532817 0.0555902
466 1 0.771383 0.637892 0.0485622
859 1 0.906386 0.623195 0.0377906
849 1 0.261835 0.666451 0.040822
1033 2 0.322316 0.673277 0.043156
249 1 0.00670464 0.684957 0.0689932
1034 2 0.411418 0.694787 0.0571887
823 1 0.842369 0.696916 0.066325
366 1 0.54589 0.76754 0.0406366
262 1 0.255181 0.829716 0.0373078
471 1 0.467892 0.856551 0.0484595
962 1 0.461943 0.876781 0.0570578
669 1 0.471998 0.870711 0.0472765
146 1 0.797933 0.857326 0.0711702
645 1 0.746112 0.899212 0.0577104
531 1 0.686495 0.929438 0.0667364
579 1 0.118104 0.967873 0.044306
322 1 0.421371 0.976443 0.0697942
329 1 0.528709 0.00661002 0.0946229
387 1 0.242937 0.0460585 0.104853
776 1 0.130011 0.0983564 0.0754781
918 1 0.325347 0.105259 0.0956421
509 1 0.0533784 0.130964 0.106115
928 1 0.193856 0.132628 0.0719312
57 1 0.220333 0.141792 0.0909807
83 1 0.303572 0.13733 0.105739
39 1 0.779147 0.124833 0.0750704
665 1 0.801876 0.127749 0.078371
858 1 0.793962 0.114659 0.0738327
553 1 0.668064 0.146849 0.0956191
392 1 0.575012 0.233776 0.0737481
520 1 0.773566 0.321063 0.103813
428 1 0.972529 0.286969 0.0904898
182 1 0.280084 0.370804 0.095258
131 1 0.246528 0.393235 0.104778
744 1 0.89257 0.423459 0.081301
1037 2 0.597845 0.484608 0.0983095
754 1 0.818258 0.468083 0.0775791
225 1 0.914946 0.498965 0.0992223
318 1 0.941363 0.490278 0.102773
1035 2 0.423426 0.527834 0.106549
1089 2 0.53639 0.606877 0.0774247
1062 2 0.678978 0.586588 0.0846335
98 1 0.303603 0.65866 0.100882
533 1 0.23691 0.745111 0.087897
563 1 0.35787 0.72625 0.0756682
1144 2 0.482253 0.728672 0.0734034
337 1 0.262556 0.783369 0.0805676
922 1 0.694399 0.767006 0.0733001
88 1 0.717366 0.765103 0.0920787
764 1 0.197227 0.801458 0.100656
727 1 0.418923 0.847213 0.107091
2 1 0.43719 0.846557 0.0838375
525 1 0.83405 0.875237 0.105303
995 1 0.711306 0.917242 0.0829495
524 1 0.412564 0.95913 0.104708
742 1 0.456416 0.986856 0.0956327
636 1 0.952103 0.993401 0.0919499
906 1 0.949963 0.0238071 0.126071
391 1 0.289169 0.0604581 0.119865
936 1 0.514611 0.0686104 0.135822
496 1 0.788247 0.0651588 0.123494
155 1 0.273225 0.0951463 0.124558
157 1 0.193439 0.133404 0.118004
699 1 0.226223 0.135188 0.111867
276 1 0.754099 0.135071 0.131655
198 1 0.805505 0.124718 0.134694
604 1 0.933904 0.128466 0.122981
789 1 0.0758716 0.173149 0.123281
196 1 0.388598 0.163688 0.108128
133 1 0.427987 0.171126 0.107782
832 1 0.624392 0.160059 0.112278
562 1 0.746842 0.17553 0.127587
785 1 0.0269055 0.201292 0.116379
379 1 0.100091 0.225925 0.125091
282 1 0.417519 0.236873 0.11703
707 1 0.824018 0.271263 0.116916
221 1 0.853953 0.388417 0.1224
519 1 0.0093658 0.410967 0.116069
1061 2 0.574431 0.458369 0.110838
991 1 0.098082 0.464635 0.12459
448 1 0.835276 0.480877 0.10774
3 1 0.0562579 0.526038 0.120574
160 1 0.185252 0.529608 0.124612
526 1 0.8207 0.51289 0.142162
20 1 0.747876 0.551267 0.142547
1116 2 0.371369 0.607057 0.127693
657 1 0.143012 0.607432 0.110707
501 1 0.706708 0.641941 0.108782
898 1 0.0287774 0.66134 0.140268
517 1 0.0823268 0.666694 0.129834
596 1 0.205015 0.688828 0.126556
1145 2 0.595538 0.705468 0.112337
31 1 0.851354 0.706499 0.137027
63 1 0.861647 0.696324 0.112663
919 1 0.204601 0.720956 0.113008
227 1 0.697258 0.810622 0.120308
138 1 0.0423537 0.837813 0.123696
195 1 0.465036 0.856199 0.142345
52 1 0.262323 0.862624 0.120993
839 1 0.71535 0.88803 0.12154
189 1 0.0474159 0.919565 0.122335
66 1 0.749861 0.913616 0.135835
274 1 0.944363 0.911592 0.119045
619 1 0.28583 0.946518 0.12032
914 1 0.365382 0.983406 0.109961
704 1 0.951449 0.996022 0.138185
537 1 0.602963 0.00423404 0.161521
451 1 0.650266 0.0174438 0.177882
467 1 0.184986 0.0677794 0.168516
238 1 0.420899 0.0480253 0.160431
461 1 0.76534 0.0690873 0.150807
119 1 0.997028 0.0533793 0.145192
457 1 0.0643227 0.0719446 0.173338
573 1 0.56108 0.072181 0.145291
610 1 0.713221 0.100086 0.147724
72 1 0.101929 0.125135 0.151081
920 1 0.227949 0.137036 0.168802
929 1 0.948064 0.114487 0.175454
433 1 0.0687336 0.205161 0.145548
264 1 0.0938413 0.190407 0.169465
255 1 0.362661 0.248953 0.155807
875 1 0.490226 0.229616 0.155282
675 1 0.6003 0.247287 0.145568
730 1 0.746607 0.222892 0.151526
464 1 0.186544 0.253238 0.168547
598 1 0.124251 0.288164 0.178283
267 1 0.0923635 0.353909 0.154135
516 1 0.0232265 0.367356 0.145916
1022 2 0.463998 0.40735 0.168506
1015 2 0.334353 0.463964 0.173764
234 1 0.0829702 0.480404 0.154787
28 1 0.762925 0.486592 0.154908
417 1 0.927024 0.495042 0.165372
570 1 0.964091 0.471123 0.169511
1059 2 0.709948 0.602923 0.16841
1040 2 0.374287 0.633892 0.143282
935 1 0.914716 0.627009 0.146219
650 1 0.300452 0.697338 0.153157
745 1 0.202996 0.758324 0.147538
258 1 0.981125 0.765941 0.163867
220 1 0.0781703 0.808303 0.14981
46 1 0.29683 0.814908 0.152363
469 1 0.344726 0.808006 0.157729
939 1 0.83 0.804021 0.173814
413 1 0.880157 0.800747 0.158508
628 1 0.748607 0.829784 0.174542
696 1 0.217164 0.868635 0.151625
522 1 0.322358 0.877382 0.167342
474 1 0.522335 0.877976 0.146784
774 1 0.195508 0.898801 0.153647
307 1 0.29993 0.926052 0.150163
736 1 0.363716 0.971093 0.164808
572 1 0.795024 0.970677 0.168237
169 1 0.978877 0.986444 0.163716
617 1 0.976089 0.121926 0.205256
156 1 0.730896 0.165835 0.181484
796 1 0.37795 0.200881 0.202573
300 1 0.383901 0.226584 0.189253
247 1 0.205825 0.307861 0.21398
941 1 0.100753 0.355281 0.200578
1052 2 0.468247 0.330984 0.191509
1026 2 0.687383 0.347376 0.212108
331 1 0.0515488 0.381519 0.187238
1070 2 0.43017 0.360168 0.198517
750 1 0.138954 0.39693 0.201203
69 1 0.762031 0.45018 0.179438
396 1 0.0704175 0.506706 0.2012
201 1 0.975635 0.504027 0.189176
12 1 0.255224 0.554602 0.198783
1128 2 0.378208 0.549257 0.208014
829 1 0.140392 0.575308 0.203927
1054 2 0.482633 0.614883 0.192133
543 1 0.880146 0.619277 0.191815
1063 2 0.467225 0.650554 0.212596
938 1 0.796672 0.663009 0.190922
627 1 0.396427 0.742322 0.209166
803 1 0.909723 0.715488 0.203814
253 1 0.138501 0.783375 0.188595
422 1 0.174377 0.755946 0.181565
443 1 0.569095 0.775462 0.182095
421 1 0.604437 0.779091 0.185231
810 1 0.411066 0.790396 0.178734
408 1 0.635438 0.803487 0.199943
263 1 0.0316436 0.833652 0.194664
416 1 0.150821 0.85638 0.18242
974 1 0.773717 0.856619 0.190264
511 1 0.812746 0.825918 0.207913
65 1 0.643058 0.876729 0.183361
478 1 0.237218 0.925996 0.209816
761 1 0.225261 0.955031 0.204038
291 1 0.912949 0.928732 0.199206
85 1 0.529897 0.973415 0.193565
135 1 0.877432 0.999535 0.187022
418 1 0.0161255 0.0206011 0.243194
983 1 0.322072 0.0606435 0.235629
383 1 0.237946 0.165005 0.239057
633 1 0.590539 0.189815 0.220608
6 1 0.923082 0.239974 0.235311
406 1 0.266515 0.314763 0.215314
591 1 0.214812 0.352843 0.230098
998 1 0.931359 0.356771 0.245445
1030 2 0.377215 0.357849 0.24341
1038 2 0.394292 0.362401 0.240759
710 1 0.758516 0.377833 0.238286
1083 2 0.716511 0.404109 0.22122
1149 2 0.365264 0.490592 0.246315
643 1 0.998781 0.511348 0.22442
1142 2 0.435093 0.612922 0.24504
623 1 0.02717 0.646709 0.237734
1031 2 0.579887 0.652577 0.215606
10 1 0.288079 0.735719 0.227329
605 1 0.944294 0.742442 0.215025
393 1 0.349781 0.761006 0.228216
924 1 0.487044 0.755056 0.222486
368 1 0.0754323 0.789862 0.215475
781 1 0.0414007 0.822291 0.244778
217 1 0.490268 0.938669 0.215812
506 1 0.713925 0.936648 0.240823
760 1 0.8049 0.947417 0.236522
664 1 0.843989 0.929269 0.218588
567 1 0.532812 0.964374 0.232139
946 1 0.333374 0.0157823 0.253076
578 1 0.587672 0.0103102 0.282984
330 1 0.327367 0.0552901 0.261442
259 1 0.114541 0.0939648 0.265968
881 1 0.585476 0.0921211 0.279494
382 1 0.282628 0.123715 0.282103
313 1 0.0491548 0.144182 0.270872
631 1 0.118293 0.154653 0.258571
192 1 0.407936 0.178215 0.263276
199 1 0.807769 0.165482 0.260827
565 1 0.25907 0.185354 0.250142
895 1 0.366525 0.185176 0.258575
602 1 0.172506 0.308279 0.250458
512 1 0.984314 0.362068 0.273126
228 1 0.0116285 0.44007 0.250898
485 1 0.029599 0.470593 0.253633
900 1 0.0562568 0.508851 0.263592
625 1 0.212741 0.53396 0.26521
651 1 0.112486 0.548598 0.2837
683 1 0.952855 0.627791 0.27871
733 1 0.215187 0.649032 0.276055
1077 2 0.40243 0.645766 0.277956
1007 2 0.428849 0.658618 0.269042
1072 2 0.680439 0.644992 0.25084
242 1 0.89419 0.650936 0.285522
681 1 0.0203334 0.743814 0.280345
355 1 0.286 0.799386 0.274854
484 1 0.330568 0.852696 0.259536
952 1 0.215854 0.861621 0.255918
735 1 0.398219 0.85942 0.269374
513 1 0.817393 0.926713 0.261822
442 1 0.335514 0.989008 0.252488
826 1 0.554709 0.999005 0.274219
655 1 0.320998 0.0123942 0.310072
876 1 0.819599 0.00013788 0.317341
948 1 0.0817558 0.0702272 0.308609
483 1 0.217889 0.0539243 0.305488
162 1 0.41477 0.0377992 0.290545
953 1 0.218248 0.0959909 0.319463
608 1 0.381216 0.102118 0.290307
152 1 0.615048 0.119194 0.286672
972 1 0.728275 0.115804 0.316245
818 1 0.805922 0.13169 0.311032
836 1 0.9962 0.132522 0.302968
690 1 0.127934 0.184704 0.319513
240 1 0.618444 0.189344 0.310097
850 1 0.0947949 0.217903 0.301198
441 1 0.78558 0.248011 0.318875
601 1 0.115385 0.276332 0.311845
1005 2 0.527445 0.263784 0.320559
768 1 0.989187 0.26467 0.306844
1099 2 0.448045 0.286333 0.289302
311 1 0.902859 0.34773 0.296423
999 1 0.188099 0.37272 0.305025
1127 2 0.714312 0.445642 0.295785
700 1 0.151752 0.487494 0.319797
1058 2 0.604064 0.495978 0.312068
243 1 0.760664 0.471905 0.312685
1066 2 0.580682 0.523616 0.314668
470 1 0.949635 0.511233 0.301152
309 1 0.919114 0.549908 0.303448
449 1 0.782031 0.595424 0.297648
491 1 0.0237767 0.614821 0.302555
508 1 0.886691 0.615297 0.296784
1104 2 0.510215 0.675517 0.314749
837 1 0.987961 0.665932 0.320736
450 1 0.650902 0.710675 0.310124
1009 2 0.471633 0.741888 0.30807
630 1 0.112142 0.768151 0.314906
667 1 0.873788 0.750776 0.296978
860 1 0.146712 0.787725 0.285984
663 1 0.86701 0.833777 0.2863
481 1 0.0292068 0.878818 0.288493
26 1 0.316529 0.904106 0.307913
159 1 0.812811 0.914339 0.299648
778 1 0.0266518 0.937604 0.302466
725 1 0.107214 0.942601 0.292908
718 1 0.676799 0.965389 0.286157
245 1 0.791336 0.985441 0.309254
694 1 0.207237 0.0355417 0.350099
53 1 0.524069 0.0272103 0.323346
758 1 0.974894 0.0503565 0.341482
712 1 0.992032 0.0839739 0.349306
123 1 0.505931 0.177566 0.357019
432 1 0.619631 0.143056 0.34632
964 1 0.778911 0.15436 0.32439
459 1 0.0734942 0.217609 0.356514
523 1 0.510933 0.247893 0.332684
864 1 0.179643 0.267885 0.351219
440 1 0.290728 0.272346 0.323007
23 1 0.945577 0.320422 0.340724
140 1 0.12955 0.344044 0.35575
932 1 0.165488 0.349696 0.336756
219 1 0.814205 0.35041 0.337781
279 1 0.800757 0.329585 0.333492
507 1 0.222013 0.378314 0.330689
1029 2 0.648174 0.359309 0.323214
1123 2 0.299365 0.425264 0.322563
1086 2 0.641993 0.481045 0.345124
19 1 0.0981471 0.558597 0.345079
285 1 0.086964 0.604591 0.356221
430 1 0.180678 0.648084 0.342717
1108 2 0.518695 0.700983 0.350747
892 1 0.0636481 0.734001 0.352722
874 1 0.89128 0.735072 0.352025
1000 1 0.556064 0.765475 0.333812
254 1 0.715997 0.769462 0.342974
87 1 0.850942 0.782135 0.342043
535 1 0.238525 0.883759 0.338222
357 1 0.650435 0.869122 0.338672
121 1 0.944242 0.880547 0.353031
615 1 0.114411 0.912795 0.342101
172 1 0.427436 0.92517 0.337937
360 1 0.423569 0.915888 0.329917
167 1 0.901047 0.89917 0.347812
616 1 0.697149 0.980801 0.322364
312 1 0.978997 0.997461 0.32453
819 1 0.519546 0.00454375 0.366784
904 1 0.521331 0.018349 0.391264
106 1 0.378238 0.0421475 0.373713
209 1 0.405494 0.135263 0.373149
37 1 0.435485 0.204401 0.372108
203 1 0.96967 0.243432 0.35886
91 1 0.0821873 0.321437 0.384701
1092 2 0.412973 0.336077 0.390237
1032 2 0.592332 0.321886 0.390977
1111 2 0.637343 0.332001 0.376378
1076 2 0.662779 0.334856 0.363181
239 1 0.110217 0.419372 0.385947
589 1 0.175726 0.429071 0.389958
1114 2 0.491073 0.463702 0.371494
624 1 0.779645 0.490056 0.371465
315 1 0.887158 0.465662 0.379786
863 1 0.021868 0.5348 0.381241
373 1 0.94904 0.518557 0.379402
58 1 0.112903 0.563834 0.363942
27 1 0.0922007 0.617028 0.389622
1138 2 0.695164 0.61944 0.371444
824 1 0.724558 0.640113 0.378692
691 1 0.0609116 0.741559 0.38692
1084 2 0.566772 0.736892 0.383245
806 1 0.111071 0.765537 0.386192
397 1 0.178127 0.77589 0.388443
957 1 0.217694 0.778745 0.371905
843 1 0.462949 0.78166 0.364069
549 1 0.518282 0.761907 0.372232
122 1 0.858915 0.777497 0.391296
294 1 0.0963187 0.829141 0.373714
738 1 0.967802 0.840149 0.378549
468 1 0.24614 0.880608 0.38129
136 1 0.820662 0.870314 0.363604
458 1 0.979466 0.885784 0.365804
185 1 0.339318 0.91595 0.373634
343 1 0.499014 0.920412 0.363846
176 1 0.32403 0.96587 0.369787
510 1 0.46891 0.973188 0.373405
804 1 0.569166 0.97652 0.365677
139 1 0.952519 0.985385 0.373424
979 1 0.120725 0.0250728 0.398158
527 1 0.904624 0.0109138 0.427994
614 1 0.359377 0.049289 0.400673
38 1 0.014226 0.0968879 0.394584
335 1 0.445831 0.0758269 0.421888
364 1 0.593864 0.071602 0.414743
693 1 0.25514 0.140917 0.396573
452 1 0.664432 0.116047 0.401438
557 1 0.782719 0.157578 0.412819
77 1 0.584649 0.20131 0.410839
109 1 0.595005 0.242364 0.41064
887 1 0.731793 0.244446 0.408707
261 1 0.806522 0.221242 0.407524
145 1 0.73239 0.279433 0.42374
518 1 0.116815 0.308169 0.401024
613 1 0.329345 0.29633 0.419013
308 1 0.781716 0.292997 0.393879
174 1 0.981752 0.299068 0.427577
847 1 0.185954 0.334825 0.408869
475 1 0.00228311 0.37225 0.40915
552 1 0.214515 0.360112 0.408144
1074 2 0.303081 0.379096 0.427585
265 1 0.192266 0.413959 0.402393
48 1 0.759112 0.395038 0.399464
290 1 0.17186 0.451086 0.401554
299 1 0.181739 0.481311 0.399083
799 1 0.0457268 0.529981 0.398104
1043 2 0.661544 0.575948 0.417758
233 1 0.789947 0.638865 0.405729
970 1 0.796015 0.625715 0.394438
639 1 0.0642395 0.67403 0.419771
216 1 0.135698 0.670816 0.403016
394 1 0.813156 0.710799 0.394756
332 1 0.915851 0.702767 0.404905
1067 2 0.561089 0.726272 0.419835
250 1 0.567971 0.885549 0.419725
215 1 0.0365872 0.920235 0.39651
713 1 0.782586 0.923924 0.396545
181 1 0.911281 0.905838 0.414963
576 1 0.933059 0.925413 0.42273
207 1 0.321827 0.94701 0.395727
687 1 0.612658 0.947012 0.422392
997 1 0.49747 0.981461 0.409528
980 1 0.848276 0.981759 0.422904
390 1 0.738444 0.0209103 0.439715
540 1 0.922652 0.012165 0.457205
211 1 0.563815 0.0384042 0.459503
797 1 0.636821 0.0472085 0.433856
473 1 0.966032 0.0947488 0.442514
820 1 0.541568 0.137589 0.45216
359 1 0.683116 0.134674 0.463463
945 1 0.907904 0.139374 0.452331
817 1 0.95735 0.175608 0.443051
244 1 0.29364 0.202502 0.444505
296 1 0.431559 0.211485 0.431799
907 1 0.877028 0.204822 0.447036
281 1 0.585187 0.240046 0.454667
419 1 0.354749 0.261048 0.439871
59 1 0.773801 0.271462 0.460067
137 1 0.0945647 0.349345 0.435595
284 1 0.295254 0.325903 0.459219
708 1 0.00591225 0.367255 0.449488
305 1 0.73079 0.380225 0.440505
495 1 0.865378 0.416103 0.450752
942 1 0.110698 0.494166 0.446562
1 1 0.822069 0.513979 0.441567
595 1 0.937794 0.509814 0.437449
321 1 0.773164 0.565208 0.448945
702 1 0.79369 0.547597 0.460637
805 1 0.925837 0.538551 0.433234
737 1 0.923698 0.584485 0.438327
1006 2 0.569829 0.607603 0.45626
844 1 0.910728 0.612212 0.44845
925 1 0.316695 0.687656 0.432257
288 1 0.0811498 0.884599 0.45423
861 1 0.0918587 0.868951 0.46112
743 1 0.298559 0.88198 0.445225
168 1 0.694527 0.908457 0.442892
367 1 0.978937 0.999074 0.44351
921 1 0.0587861 0.0180577 0.495252
465 1 0.777535 0.0333475 0.471457
375 1 0.246389 0.0530413 0.464594
672 1 0.347536 0.0401915 0.4984
205 1 0.897545 0.0386432 0.476896
490 1 0.843225 0.0746998 0.479234
678 1 0.350636 0.139197 0.481089
575 1 0.866253 0.120098 0.490208
126 1 0.965498 0.117481 0.496473
147 1 0.15685 0.173528 0.482597
480 1 0.353552 0.149432 0.497235
354 1 0.417159 0.192865 0.481683
885 1 0.429534 0.184952 0.48412
593 1 0.236165 0.218389 0.466489
724 1 0.871376 0.214879 0.47707
882 1 0.449471 0.252364 0.481223
94 1 0.133296 0.313172 0.48777
431 1 0.051905 0.366782 0.499948
934 1 0.7772 0.401469 0.484495
1091 2 0.562323 0.462277 0.474584
487 1 0.0304918 0.47602 0.470999
425 1 0.176205 0.484291 0.474565
1068 2 0.333791 0.518295 0.471518
790 1 0.979146 0.500772 0.475295
582 1 0.195131 0.570743 0.485818
1143 2 0.444498 0.670018 0.470605
539 1 0.0558506 0.680876 0.488006
967 1 0.256601 0.694977 0.476204
353 1 0.763178 0.729189 0.474482
124 1 0.143738 0.806895 0.479504
731 1 0.389468 0.792675 0.489422
293 1 0.413804 0.797316 0.489445
637 1 0.401965 0.819986 0.499053
49 1 0.78609 0.820343 0.499757
404 1 0.207999 0.843606 0.491916
378 1 0.313014 0.830992 0.476058
317 1 0.984104 0.828196 0.489495
40 1 0.708507 0.881803 0.470735
278 1 0.133033 0.893168 0.469614
992 1 0.991545 0.894477 0.470868
802 1 0.284401 0.930771 0.472833
951 1 0.488425 0.957963 0.486834
763 1 0.801686 0.939458 0.477313
306 1 0.0903176 0.968733 0.487315
825 1 0.679956 0.0219267 0.522613
786 1 0.987329 0.0332303 0.501747
370 1 0.153569 0.0384078 0.519602
328 1 0.485456 0.0531039 0.517663
41 1 0.640808 0.0647059 0.512162
838 1 0.61201 0.0571509 0.53476
8 1 0.749163 0.176683 0.518779
44 1 0.874348 0.160976 0.518846
287 1 0.0396382 0.199828 0.504319
34 1 0.364324 0.189475 0.50483
801 1 0.108004 0.218213 0.502189
16 1 0.0560633 0.255281 0.505843
971 1 0.312268 0.282473 0.521909
158 1 0.285556 0.339056 0.509062
536 1 0.142403 0.371543 0.520652
688 1 0.140023 0.358393 0.504227
15 1 0.206246 0.381122 0.515384
1041 2 0.319892 0.426906 0.511865
890 1 0.798745 0.50476 0.509227
1133 2 0.517676 0.583418 0.526401
1137 2 0.568221 0.595288 0.521562
772 1 0.885264 0.625425 0.513225
723 1 0.1758 0.672548 0.508352
674 1 0.287836 0.659934 0.504171
779 1 0.186691 0.711579 0.503181
561 1 0.302118 0.691767 0.534465
1023 2 0.534999 0.720356 0.532633
183 1 0.00129799 0.815347 0.535275
661 1 0.139038 0.813025 0.517052
188 1 0.816909 0.794106 0.531567
166 1 0.117263 0.83968 0.502999
429 1 0.862368 0.822187 0.5001
60 1 0.0664534 0.88264 0.527505
347 1 0.0928774 0.990214 0.524898
815 1 0.220562 0.985869 0.506383
462 1 0.613974 0.0625075 0.56338
482 1 0.70935 0.0526894 0.550676
814 1 0.0700347 0.0730388 0.562457
437 1 0.531986 0.0838071 0.546448
719 1 0.443274 0.107369 0.55282
336 1 0.615408 0.16425 0.548083
911 1 0.14983 0.193226 0.551533
877 1 0.549842 0.20227 0.552162
812 1 0.381939 0.249097 0.566697
11 1 0.717572 0.228389 0.536399
756 1 0.851444 0.220119 0.545254
559 1 0.282518 0.274681 0.55889
794 1 0.911897 0.250701 0.537179
622 1 0.938614 0.292887 0.556912
1150 2 0.560173 0.327186 0.54669
883 1 0.913567 0.327871 0.535983
1094 2 0.653916 0.361428 0.542157
64 1 0.940284 0.357801 0.56754
22 1 0.212377 0.422356 0.537987
1096 2 0.549798 0.455734 0.548559
1010 2 0.615305 0.436546 0.544629
132 1 0.00193194 0.470135 0.553902
1148 2 0.356577 0.491583 0.561134
1002 2 0.56878 0.486078 0.537868
990 1 0.150682 0.510058 0.548148
903 1 0.763168 0.562894 0.55956
436 1 0.849502 0.583659 0.550279
82 1 0.816958 0.613706 0.563355
324 1 0.841832 0.663447 0.547428
554 1 0.069716 0.717055 0.545604
840 1 0.724921 0.744783 0.563435
210 1 0.523637 0.766202 0.561942
327 1 0.624431 0.811659 0.553905
831 1 0.735159 0.818977 0.538622
62 1 0.423447 0.872407 0.550358
547 1 0.219605 0.901561 0.541845
51 1 0.329739 0.927981 0.569183
963 1 0.97084 0.913759 0.543312
499 1 0.214252 0.941485 0.540638
502 1 0.305882 0.963024 0.551258
268 1 0.623726 0.955469 0.564034
597 1 0.0326054 0.998486 0.551504
541 1 0.250431 0.999795 0.550637
377 1 0.364253 0.0066992 0.593521
150 1 0.693404 0.0482301 0.603353
748 1 0.221996 0.089224 0.58787
298 1 0.76909 0.0873804 0.603212
100 1 0.540854 0.125341 0.598793
323 1 0.0304138 0.164908 0.603041
338 1 0.0999077 0.149199 0.595203
621 1 0.647835 0.16562 0.572079
975 1 0.770643 0.202511 0.604679
973 1 0.130733 0.227084 0.605746
886 1 0.606427 0.223632 0.58837
988 1 0.618684 0.226726 0.577329
660 1 0.298047 0.27486 0.578874
423 1 0.729714 0.299911 0.60463
401 1 0.768212 0.341796 0.571949
9 1 0.11557 0.387314 0.582632
1140 2 0.571005 0.380885 0.584369
1018 2 0.693488 0.445204 0.579002
384 1 0.833071 0.431284 0.584786
701 1 0.833909 0.508574 0.604319
280 1 0.00318703 0.564383 0.591991
1025 2 0.271944 0.565213 0.584451
1082 2 0.557419 0.544062 0.593569
654 1 0.208102 0.578008 0.581146
1105 2 0.40094 0.593327 0.597534
1130 2 0.555191 0.595855 0.58241
439 1 0.801904 0.599131 0.599351
420 1 0.915784 0.589075 0.577652
870 1 0.143846 0.625547 0.573024
405 1 0.837488 0.653275 0.590127
251 1 0.326099 0.747342 0.584048
204 1 0.361143 0.723602 0.578979
277 1 0.723671 0.740083 0.580718
463 1 0.724506 0.765728 0.582387
163 1 0.189195 0.800595 0.602533
175 1 0.293023 0.832664 0.585206
248 1 0.295462 0.835936 0.578747
103 1 0.508946 0.848431 0.587204
899 1 0.481222 0.90103 0.604335
127 1 0.219131 0.93179 0.58681
388 1 0.263817 0.965406 0.578026
968 1 0.564826 0.0269318 0.642394
896 1 0.861666 0.0247886 0.622093
721 1 0.387283 0.0595953 0.617697
751 1 0.12293 0.0889888 0.635264
292 1 0.0509971 0.108265 0.613588
232 1 0.0850318 0.130222 0.640375
869 1 0.246452 0.115526 0.640099
349 1 0.458328 0.124926 0.632721
766 1 0.901774 0.113323 0.613037
629 1 0.0541531 0.150332 0.636673
74 1 0.750115 0.175856 0.615257
334 1 0.0665916 0.204833 0.630776
571 1 0.96681 0.1827 0.63871
568 1 0.932245 0.236843 0.622059
788 1 0.289658 0.278373 0.612011
104 1 0.141804 0.29539 0.616854
257 1 0.720852 0.352568 0.609566
956 1 0.741557 0.356734 0.624336
1100 2 0.395158 0.420156 0.620991
76 1 0.889118 0.398085 0.607758
1121 2 0.34637 0.440683 0.633017
13 1 0.952191 0.467521 0.62896
878 1 0.182394 0.501317 0.628593
410 1 0.239097 0.51042 0.632234
4 1 0.0856511 0.538385 0.640222
148 1 0.00890137 0.605322 0.639989
1120 2 0.54942 0.595381 0.631534
427 1 0.986708 0.60068 0.630152
351 1 0.173001 0.635724 0.613949
1126 2 0.565636 0.63825 0.632887
1008 2 0.645631 0.625279 0.619352
1027 2 0.699925 0.63471 0.63212
658 1 0.26838 0.663332 0.614948
1106 2 0.622815 0.652559 0.62491
149 1 0.294264 0.694689 0.634045
381 1 0.176165 0.797026 0.615237
472 1 0.365908 0.810353 0.609705
978 1 0.851121 0.788103 0.638789
252 1 0.0910258 0.870746 0.630936
891 1 0.783 0.878006 0.640511
230 1 0.144108 0.0149743 0.673042
828 1 0.940323 0.00914312 0.66842
901 1 0.185105 0.0640592 0.643675
266 1 0.0260682 0.128259 0.653403
456 1 0.124419 0.110885 0.649257
455 1 0.491112 0.123024 0.672287
689 1 0.543472 0.129211 0.654157
128 1 0.51182 0.162769 0.657842
398 1 0.94301 0.175621 0.662213
853 1 0.984362 0.173122 0.665649
54 1 0.468745 0.202098 0.657219
915 1 0.116215 0.226968 0.655352
747 1 0.831571 0.222149 0.66075
1101 2 0.611073 0.303063 0.654004
1036 2 0.637225 0.342303 0.672618
752 1 0.887389 0.351619 0.653893
241 1 0.799688 0.360186 0.651151
800 1 0.937905 0.374704 0.656221
273 1 0.0294189 0.443901 0.644824
283 1 0.917323 0.44664 0.670512
1051 2 0.628847 0.532819 0.666712
544 1 0.828375 0.50584 0.657216
680 1 0.025441 0.586343 0.672757
798 1 0.822252 0.58658 0.651041
108 1 0.933635 0.600324 0.647206
1087 2 0.498492 0.661098 0.661566
746 1 0.716171 0.682671 0.653854
1056 2 0.510664 0.730683 0.664628
532 1 0.639124 0.749786 0.65843
816 1 0.779006 0.749131 0.647942
460 1 0.930431 0.74937 0.667565
612 1 0.398986 0.752941 0.672299
813 1 0.474669 0.757342 0.644379
488 1 0.0869765 0.813688 0.651306
434 1 0.232868 0.810058 0.650847
762 1 0.264699 0.791257 0.660844
943 1 0.364776 0.793755 0.645159
949 1 0.783294 0.817259 0.664759
644 1 0.827026 0.819638 0.649179
647 1 0.879563 0.820412 0.67185
222 1 0.181344 0.849387 0.64509
164 1 0.78044 0.8623 0.677815
635 1 0.912172 0.867477 0.678405
84 1 0.147849 0.900141 0.66767
50 1 0.423389 0.899605 0.666367
269 1 0.365618 0.934471 0.646927
842 1 0.831138 0.942147 0.657135
426 1 0.00839093 0.0264 0.704289
144 1 0.0811604 0.063408 0.698075
326 1 0.247519 0.0460351 0.711171
56 1 0.320822 0.0479377 0.689755
226 1 0.434589 0.137842 0.713078
809 1 0.567391 0.137305 0.686175
191 1 0.572388 0.129274 0.705504
872 1 0.606421 0.110173 0.685055
477 1 0.628852 0.118801 0.690381
697 1 0.35736 0.153847 0.710946
361 1 0.922482 0.163069 0.703885
649 1 0.918318 0.167889 0.7064
709 1 0.549484 0.181812 0.714019
855 1 0.776832 0.207336 0.691296
822 1 0.0117969 0.271298 0.703448
792 1 0.08034 0.275106 0.711369
795 1 0.37254 0.280579 0.6986
237 1 0.976103 0.36477 0.691285
117 1 0.981164 0.421829 0.688202
1115 2 0.598557 0.453834 0.678601
1001 2 0.623875 0.464217 0.701353
551 1 0.884781 0.517384 0.680087
1085 2 0.348433 0.610674 0.681492
1044 2 0.381308 0.643785 0.694164
400 1 0.886871 0.645785 0.70142
154 1 0.0628732 0.709983 0.688717
908 1 0.333178 0.729678 0.692741
1021 2 0.554068 0.718606 0.713954
856 1 0.616096 0.731999 0.712772
30 1 0.831842 0.776861 0.707315
871 1 0.808104 0.808216 0.690701
620 1 0.22204 0.833504 0.699985
341 1 0.782283 0.834992 0.712099
917 1 0.912942 0.821605 0.709962
194 1 0.333663 0.866347 0.691109
101 1 0.908187 0.905022 0.705363
213 1 0.907355 0.91228 0.688555
89 1 0.566073 0.991474 0.70472
984 1 0.215388 0.0242004 0.736418
574 1 0.909503 0.0205102 0.714813
638 1 0.540135 0.0442517 0.739041
435 1 0.785629 0.069717 0.734328
302 1 0.817996 0.0556155 0.730313
961 1 0.667109 0.0979791 0.734186
706 1 0.760701 0.0986331 0.727222
489 1 0.972219 0.0908391 0.732959
143 1 0.418049 0.142662 0.728451
500 1 0.654381 0.173544 0.746025
909 1 0.903026 0.163845 0.749504
634 1 0.750592 0.1952 0.730643
231 1 0.808663 0.193356 0.728571
1047 2 0.528188 0.255972 0.742396
1131 2 0.534764 0.27745 0.714989
594 1 0.763031 0.258983 0.728562
555 1 0.962713 0.309437 0.714693
111 1 0.0537471 0.326991 0.731459
1016 2 0.479106 0.339954 0.730074
1079 2 0.499784 0.370359 0.742679
632 1 0.804213 0.405886 0.723423
1042 2 0.300794 0.446547 0.743507
479 1 0.775895 0.464375 0.747388
1139 2 0.680938 0.53169 0.723011
358 1 0.06447 0.547316 0.734199
722 1 0.185967 0.544697 0.726196
7 1 0.877585 0.569629 0.749732
289 1 0.236723 0.603067 0.743629
1013 2 0.70483 0.573547 0.717279
1064 2 0.3025 0.611717 0.740699
607 1 0.177227 0.659947 0.72597
1073 2 0.428075 0.648159 0.719468
1124 2 0.412159 0.664611 0.740566
1125 2 0.595448 0.687994 0.731161
99 1 0.839216 0.709391 0.730085
577 1 0.829339 0.701181 0.748354
107 1 0.999445 0.680414 0.722644
626 1 0.386074 0.749791 0.743652
734 1 0.65251 0.728788 0.746974
711 1 0.866053 0.75699 0.729576
197 1 0.299565 0.793105 0.719391
542 1 0.298852 0.804055 0.744028
913 1 0.534765 0.788644 0.739416
765 1 0.71838 0.809112 0.74635
676 1 0.566005 0.847548 0.746992
987 1 0.0145113 0.890625 0.736738
112 1 0.624017 0.86153 0.736523
583 1 0.136306 0.894253 0.716449
286 1 0.000412906 0.939712 0.740587
893 1 0.201996 0.952683 0.73968
454 1 0.217825 0.981837 0.733117
857 1 0.44999 0.984275 0.717605
652 1 0.142803 0.0978611 0.751907
42 1 0.90921 0.0949456 0.750156
55 1 0.880711 0.115058 0.779395
986 1 0.861078 0.13243 0.751711
716 1 0.645458 0.204366 0.782727
70 1 0.808842 0.20038 0.782918
947 1 0.615769 0.227808 0.764825
703 1 0.931829 0.256011 0.781933
996 1 0.131693 0.357098 0.750967
910 1 0.90845 0.32253 0.762965
86 1 0.248668 0.362156 0.758407
43 1 0.878703 0.366322 0.765507
344 1 0.161921 0.406305 0.765934
1020 2 0.378112 0.425962 0.781972
868 1 0.750307 0.407615 0.777191
1146 2 0.270569 0.458954 0.776047
497 1 0.8035 0.430046 0.783846
447 1 0.888466 0.453666 0.770205
889 1 0.250221 0.472528 0.784899
1088 2 0.718392 0.520743 0.753589
365 1 0.761677 0.506859 0.777735
409 1 0.903231 0.595215 0.782724
1107 2 0.685052 0.66604 0.77227
319 1 0.300154 0.682975 0.760756
989 1 0.161644 0.745092 0.753148
1012 2 0.53131 0.719976 0.763427
325 1 0.867718 0.744259 0.753808
666 1 0.182173 0.7749 0.752298
642 1 0.772641 0.779482 0.758731
494 1 0.967441 0.782695 0.761282
314 1 0.541905 0.794715 0.780025
673 1 0.602714 0.809292 0.775538
821 1 0.447721 0.849454 0.770334
78 1 0.96507 0.927873 0.754311
320 1 0.0269501 0.950424 0.781923
18 1 0.0608038 0.929301 0.759773
97 1 0.147972 0.961372 0.774933
350 1 0.14833 0.986659 0.771891
71 1 0.63164 0.980173 0.77065
729 1 0.361874 0.0186716 0.813396
955 1 0.138635 0.044969 0.794773
45 1 0.239844 0.0536561 0.798375
385 1 0.043381 0.104826 0.815702
560 1 0.258114 0.120534 0.814696
548 1 0.790334 0.14106 0.789345
120 1 0.241813 0.159386 0.799128
129 1 0.342783 0.14719 0.817157
656 1 0.38277 0.210674 0.800032
698 1 0.867568 0.214244 0.79611
498 1 0.104255 0.218766 0.792778
695 1 0.11443 0.232212 0.793849
977 1 0.24331 0.313548 0.80174
845 1 0.0945051 0.346748 0.787245