LAMMPS data file via write_data, version 15 Jun 2023, timestep = 25, units = lj

1150 atoms
2 atom types

-20 20 xlo xhi
-20 20 ylo yhi
-20 20 zlo zhi

Masses

1 1
2 1

Pair Coeffs # lj/cut

1 1 1
2 0.5 3

Atoms # atomic

592 1 -9.537632944869076 -18.50269130100654 -18.912400381530997 0 0 0
994 1 -8.92571981638661 -17.653746203667886 -19.710756035187373 0 0 0
134 1 -16.82303996943402 -15.866617779694685 -19.160297908183082 0 0 0
862 1 -18.383957123774206 -15.362874969064713 -19.763822441482176 0 0 0
5 1 -11.273932078133434 -15.560044298364932 -18.7735434740341 0 0 0
954 1 -11.278270924110878 -12.980046322173587 -18.962528230144592 0 0 0
679 1 6.8122387519326075 -10.63249853085119 -19.128469360081947 0 0 0
791 1 14.900866052749894 -10.776554772974892 -19.573598142939254 0 0 0
564 1 10.23445596002678 -9.895593361999598 -19.794562288626405 0 0 0
720 1 -10.012374362303234 -4.97155240428927 -19.82279633425874 0 0 0
782 1 19.159036770027285 -1.8596448085897381 -19.75699880158571 0 0 0
757 1 -16.628815288016952 -0.4985457009163454 -19.057595300980655 0 0 0
682 1 10.452737617517233 -0.8388623878540749 -18.76015266345821 0 0 0
1103 2 5.326798658722865 1.9429472008734223 -19.72162466524353 0 0 0
931 1 11.681441810220113 1.4971987628575996 -19.27014422865981 0 0 0
310 1 -17.980349062932817 4.273299288131902 -18.658864367128754 0 0 0
969 1 8.710855198991228 6.359514989873543 -19.472206020155685 0 0 0
808 1 -18.75778308219214 9.1673285313071 -19.418513563494066 0 0 0
110 1 -9.63259339843504 8.701179383095598 -19.54295399095345 0 0 0
923 1 18.17398698915448 10.199326719250216 -19.91582956161156 0 0 0
399 1 12.434015211634991 13.750622019654028 -18.880724670876642 0 0 0
193 1 15.376161288827323 13.929062688335286 -19.634991765161853 0 0 0
648 1 11.380750118896605 14.446203085779192 -18.818801204386496 0 0 0
493 1 12.367770652187994 14.801550102856577 -19.28015486682784 0 0 0
362 1 -11.993995193389242 16.922784707007366 -18.757429327237155 0 0 0
303 1 -6.313064334128548 16.327736301500224 -19.73598068567737 0 0 0
178 1 -16.804337043341768 18.787278441456543 -18.999292894649457 0 0 0
438 1 -13.835536141818217 19.585687622343183 -18.999404091287616 0 0 0
445 1 -10.169709561007203 19.60649993695098 -19.76717903523494 0 0 0
356 1 -1.0365214669315712 19.183705281086127 -19.46534078543323 0 0 0
538 1 13.662623707142878 19.442016781201207 19.994026719249423 0 0 -1
587 1 12.643664159180439 -17.93647665434353 -18.36312955169153 0 0 0
503 1 19.593226387907393 -16.64409844048512 -17.362489233427908 0 0 0
80 1 -17.446424462159502 -14.265920497466059 -17.873215901624576 0 0 0
369 1 -10.22850473405904 -12.97780567564717 -17.562040683843477 0 0 0
376 1 2.6338365034357807 -13.109886754821002 -17.866688276578994 0 0 0
685 1 -8.667449945932852 -11.846220401463643 -17.562379733211824 0 0 0
976 1 13.754895720322185 -11.835325204707658 -18.293186767670125 0 0 0
161 1 -5.915450690141829 -10.44138684905011 -18.049077780242754 0 0 0
981 1 10.001133326395388 -10.555269740661318 -17.86160413339432 0 0 0
585 1 -5.004972416577178 -9.10976777727427 -18.206726853598074 0 0 0
346 1 19.699459928850192 -8.005801830086586 -18.546641733467936 0 0 0
867 1 -12.611771650897232 -6.046136629789201 -17.41833686708395 0 0 0
827 1 12.147799028163519 -6.708357070301249 -17.950755553800633 0 0 0
170 1 -19.02320304840021 -2.9736344623256628 -17.874408307426798 0 0 0
611 1 11.980482373377534 -4.032750643805018 -18.44007043095309 0 0 0
1003 2 -6.4807680512223245 -2.26863689360611 -17.96054167578022 0 0 0
865 1 17.362149151500603 -1.2063707380333468 -18.315036766796542 0 0 0
545 1 13.044137466798711 1.3137100924590548 -17.784724464363585 0 0 0
466 1 10.855329069707231 5.5156745694185005 -18.057511783231753 0 0 0
859 1 16.255424989506338 4.927798632964397 -18.488375767361546 0 0 0
849 1 -9.478811983532973 6.66610355912216 -18.374795197814784 0 0 0
1033 2 -7.170802400306222 6.915029534736129 -18.234596255502847 0 0 0
249 1 -19.73181422787337 7.398272132220804 -17.240273764934518 0 0 0
1034 2 -3.5432979434464587 7.791464495375504 -17.71245244783929 0 0 0
823 1 13.699667091595805 7.876500276105066 -17.335145656117373 0 0 0
366 1 1.8355864574367118 10.701590138814222 -18.374536949384275 0 0 0
262 1 -9.793729778483582 13.1890284274018 -18.51129394694903 0 0 0
471 1 -1.4051389284523756 14.034155994617663 -17.988444701705962 0 0 0
962 1 -1.7120038486088711 15.096582659241205 -17.540691607731205 0 0 0
669 1 -0.8420464085402677 15.006079603069809 -18.321170416124545 0 0 0
146 1 11.921225043527443 14.295245457396021 -17.193938807247648 0 0 0
645 1 9.83154792831774 15.974102019488068 -17.682755925371122 0 0 0
531 1 7.509035582113762 17.153542641021772 -17.298144266634026 0 0 0
579 1 -15.289971578868611 18.726084907460123 -18.251629049723785 0 0 0
322 1 -3.136676555797156 19.036249599591496 -17.134108930370825 0 0 0
329 1 1.1483467841280373 -19.735599160071274 -16.215083317931317 0 0 0
387 1 -10.269690733765417 -18.151303112462344 -15.801136049225589 0 0 0
776 1 -14.799551719240636 -16.065745277360893 -16.98087660455186 0 0 0
918 1 -7.025618001024266 -15.741268050217744 -16.155375311643933 0 0 0
509 1 -17.858673991052044 -14.750568552862845 -15.757748322651315 0 0 0
928 1 -12.204014685495919 -14.686039099856519 -17.0752892857677 0 0 0
57 1 -11.279369630173349 -14.320796690630743 -16.416406949994006 0 0 0
83 1 -7.826020472813204 -14.562850147928591 -15.784312918969121 0 0 0
39 1 11.028531507318418 -14.8814686205645 -16.973945594931692 0 0 0
665 1 12.173699901056535 -14.693794786604535 -16.79239566433095 0 0 0
858 1 11.796088298693249 -15.735543895545907 -17.133056433878956 0 0 0
553 1 6.7078458967661785 -14.121582073045886 -16.169628762756222 0 0 0
392 1 3.0004968787545785 -10.648958771791756 -17.050077504036054 0 0 0
520 1 10.94413497062422 -7.156925304070191 -15.85011050699689 0 0 0
428 1 18.90251983281455 -8.520343870523725 -16.384148424022843 0 0 0
182 1 -8.836898834001476 -5.140947229025953 -16.17825900043253 0 0 0
131 1 -10.098630317434248 -4.297500951157092 -15.820305336015725 0 0 0
744 1 15.702798737074623 -3.0616259868543736 -16.747961061423627 0 0 0
1037 2 4.260610650107282 -0.22706443098599116 -16.253185987945916 0 0 0
754 1 12.780610305193234 -1.2385613221290872 -16.807302657496255 0 0 0
225 1 16.59766166734603 -0.04135331958383052 -16.031130815152963 0 0 0
318 1 17.654707566178566 -0.3889388324848823 -15.889069003719044 0 0 0
1035 2 -3.0629432169082316 1.1133534233613656 -15.738027131062946 0 0 0
1089 2 1.4556003508416957 4.2750965963467475 -16.90301040043263 0 0 0
1062 2 7.1591279549333855 3.463538565423125 -16.61466186708522 0 0 0
98 1 -7.842700780819561 6.356858525120991 -16.006107017362616 0 0 0
533 1 -10.523424848762954 9.81305992772394 -16.47837061909471 0 0 0
563 1 -5.685187720547052 9.049980765697537 -16.973270921489817 0 0 0
1144 2 -0.7098740482283166 9.146871426676807 -17.06386368584999 0 0 0
337 1 -9.509527896647961 11.317211485037314 -16.773910322486618 0 0 0
922 1 7.77605458556418 10.680087833799215 -17.068081561766302 0 0 0
88 1 8.69275406581428 10.608436712196797 -16.31416065201034 0 0 0
764 1 -12.110902700624848 12.058310598162151 -15.973776688787051 0 0 0
727 1 -3.222085225296719 13.888001187337382 -15.73607268618985 0 0 0
2 1 -2.4975206840070054 13.888365542522115 -16.662100813522432 0 0 0
525 1 13.355951999422237 15.006477504423229 -15.793650595567675 0 0 0
995 1 8.419695314791054 16.696986203901673 -16.713313269166814 0 0 0
524 1 -3.4820739836173167 18.402569374971915 -15.869638670182564 0 0 0
742 1 -1.7747082776428886 19.46215995039093 -16.18994967143463 0 0 0
636 1 18.082752651018296 19.754786743250914 -16.27890632557375 0 0 0
906 1 18.00406934595987 -19.081334335879852 -14.967702004176054 0 0 0
391 1 -8.477437950736503 -17.507003340638306 -15.199837251546857 0 0 0
936 1 0.602965295465964 -17.254158890066837 -14.563334478976106 0 0 0
496 1 11.447002094637824 -17.379399424246234 -14.961532531443009 0 0 0
155 1 -9.032717665077765 -16.266217216059154 -15.033385256395889 0 0 0
157 1 -12.121898500818697 -14.645098055073937 -15.369883581395325 0 0 0
699 1 -11.026667051011344 -14.623465601879293 -15.430826375054 0 0 0
276 1 10.161173638960681 -14.553714383679257 -14.739620098013908 0 0 0
198 1 12.210933597854686 -15.00851060569331 -14.619252089966439 0 0 0
604 1 17.357643889643263 -14.86280220369931 -15.075343519739679 0 0 0
789 1 -16.979341552434683 -13.019395911863784 -15.023298814564242 0 0 0
196 1 -4.393933279327726 -13.440734900017452 -15.675442923900693 0 0 0
133 1 -2.9426888095109316 -13.166712211313216 -15.688157210652507 0 0 0
832 1 4.990391524084368 -13.602085691861664 -15.514496038404603 0 0 0
562 1 9.881035492219617 -13.021473919669937 -14.882747723657618 0 0 0
785 1 -18.91017354823513 -11.950328799757134 -15.338065290977907 0 0 0
379 1 -16.02782010469426 -10.990819672290915 -14.973031556685912 0 0 0
282 1 -3.299251805664621 -10.525097805319865 -15.318814010973469 0 0 0
707 1 12.960721753985027 -9.149480773671288 -15.323363093344199 0 0 0
221 1 14.158120823166392 -4.463325042493327 -15.103989185348148 0 0 0
519 1 -19.623546116132637 -3.5670503571397396 -15.353315422801456 0 0 0
1061 2 2.6304299315861446 -2.053879047602462 -15.380903284352982 0 0 0
991 1 -16.118663300969317 -1.3707845616694971 -14.932509495677175 0 0 0
448 1 13.356709000291326 -0.7938762439190333 -15.770050601473008 0 0 0
3 1 -17.749685159767832 1.041519782059602 -15.177022924263508 0 0 0
160 1 -12.589921798831746 1.184327034831199 -15.0155255920326 0 0 0
526 1 12.832066904700627 0.5064721485335826 -14.323418907888602 0 0 0
20 1 9.915038417053893 2.050675424770766 -14.29813587772573 0 0 0
1116 2 -5.208498420907223 3.7001880956794135 -15.230418126242624 0 0 0
657 1 -14.27950869979314 4.297282576699409 -15.571733413064727 0 0 0
501 1 8.26832139318265 5.677655220812955 -15.648703796625465 0 0 0
898 1 -18.84204710462354 6.454283059405964 -14.390623517225007 0 0 0
517 1 -16.713785502841247 6.667083279920578 -14.805311421598768 0 0 0
596 1 -11.800703469363548 7.684828635087032 -14.993109685159029 0 0 0
1145 2 3.821515959604419 8.218733071451418 -15.506536232077767 0 0 0
31 1 14.056152491644255 8.25802911902887 -14.523534981839369 0 0 0
63 1 14.458971251905234 7.855036891887006 -15.500733400924638 0 0 0
919 1 -11.803460416019755 8.72368276241553 -15.426028974934272 0 0 0
227 1 7.892095094306731 12.4207291850523 -15.190300057135468 0 0 0
138 1 -18.300071250192772 13.50775696582974 -15.047958425932915 0 0 0
195 1 -1.3989969323196771 14.248426829737705 -14.308616905116757 0 0 0
52 1 -9.512545082992837 14.505738003212137 -15.156609714317955 0 0 0
839 1 8.632974562868469 15.545103575257794 -15.141613360165625 0 0 0
189 1 -18.10336273075238 16.782584244749785 -15.106598490433115 0 0 0
66 1 9.974022302768917 16.52952609667702 -14.575123638199226 0 0 0
274 1 17.774526308185663 16.463661676488655 -15.238203255104928 0 0 0
619 1 -8.538271799192827 17.819273692916738 -15.126869131278626 0 0 0
914 1 -5.377397319998523 19.331164643927607 -15.596720708572583 0 0 0
704 1 18.110841673056225 19.83578027125815 -14.452121338484517 0 0 0
537 1 4.1281037071613955 -19.827965402262066 -13.535858849216542 0 0 0
451 1 6.001060754876528 -19.30492112630296 -12.888026743240312 0 0 0
467 1 -12.60054077608536 -17.288823666651187 -13.259365406473803 0 0 0
238 1 -3.1640434931796264 -18.07898986995173 -13.582744278750729 0 0 0
461 1 10.69365166543501 -17.249087221771124 -14.066558986722411 0 0 0
119 1 19.877830544241572 -17.866965344235435 -14.193646491363715 0 0 0
457 1 -17.42709122478361 -17.122214938105184 -13.066464733829008 0 0 0
573 1 2.424679831929037 -17.114184982122847 -14.192125413007881 0 0 0
610 1 8.535848540851788 -15.994597245994662 -14.092554504501106 0 0 0
72 1 -15.924169524505535 -14.992106234683478 -13.958157565336187 0 0 0
920 1 -10.88406974160536 -14.519077160629788 -13.25776738085976 0 0 0
929 1 17.95381595688303 -15.410437157656906 -12.952407285860712 0 0 0
433 1 -17.155056698189735 -11.867744781437084 -14.17966008849844 0 0 0
264 1 -16.31352500835764 -12.34620833848642 -13.297832672911209 0 0 0
255 1 -5.4823967148537545 -10.053975704674508 -13.74989466892802 0 0 0
875 1 -0.3909570632460344 -10.815361976071895 -13.78873184034076 0 0 0
675 1 4.012012343859304 -10.108536756648 -14.177268982947464 0 0 0
730 1 9.864322442628236 -11.09192561370297 -13.942793048830517 0 0 0
464 1 -12.538220413279824 -9.870485993973206 -13.258100707669788 0 0 0
598 1 -15.029956174562665 -8.473425874707022 -12.86867620091358 0 0 0
267 1 -16.30470196118894 -5.841138614192506 -13.812659970498363 0 0 0
516 1 -19.06729881798346 -5.297345880156408 -14.159304127263823 0 0 0
1022 2 -1.3797214811701908 -3.632721681333743 -13.296202723063827 0 0 0
1015 2 -6.625896439247716 -1.4414544363699182 -13.049424138408817 0 0 0
234 1 -16.640756922718825 -0.8244989211450837 -13.886863865678986 0 0 0
28 1 10.51633812317353 -0.5638431028515445 -13.785144264335166 0 0 0
417 1 17.11384855784469 -0.21405607908098362 -13.378932864561454 0 0 0
570 1 18.555479117798157 -1.087107178946245 -13.19169962210395 0 0 0
1059 2 8.397936391829482 4.116937478127394 -13.263610225759265 0 0 0
1040 2 -4.965260252655333 5.9377853384437875 -13.930567256571797 0 0 0
935 1 16.58570300050569 5.079719810181081 -14.14739341842141 0 0 0
650 1 -7.981918634838387 7.893504271234157 -13.873713367559812 0 0 0
745 1 -11.898739387247037 10.323274175665848 -14.083382398599621 0 0 0
258 1 19.244995396232696 10.63762448292115 -13.445315544235202 0 0 0
220 1 -16.87897053926957 12.336887540559838 -14.011822684474767 0 0 0
46 1 -8.110995781538698 12.594025126401334 -13.903693804872404 0 0 0
469 1 -6.2267851105362375 12.322521770125505 -13.692616268449424 0 0 0
939 1 13.196157864869429 12.176246714100857 -13.025250084416875 0 0 0
413 1 15.197435405377421 12.030483324870401 -13.656943887828332 0 0 0
628 1 9.984774018076784 13.234490142121262 -12.99297453105487 0 0 0
696 1 -11.369323184938557 14.829899668120067 -13.93288815635472 0 0 0
522 1 -7.107887721440361 15.100111857231685 -13.308058941255112 0 0 0
474 1 0.8904462513620691 15.117933256536078 -14.128859917085665 0 0 0
774 1 -12.118357684429482 15.866780999285972 -13.859905049739881 0 0 0
307 1 -8.02909495267829 17.07868150381691 -14.052095932264185 0 0 0
736 1 -5.451189608282459 18.845014529728704 -13.413418670121933 0 0 0
572 1 11.800965495314898 18.82707975750187 -13.270515666003579 0 0 0
169 1 19.101284635486326 19.479860620511193 -13.50308575238736 0 0 0
617 1 19.010822245338222 -15.1316426717222 -11.824579143247874 0 0 0
156 1 9.23734480431221 -13.365729728017115 -12.745745666288673 0 0 0
796 1 -4.88022084906729 -11.956693588063075 -11.89773294254753 0 0 0
300 1 -4.6576270294394435 -10.93368958291719 -12.443410175958784 0 0 0
247 1 -11.770496540249626 -7.670048276990794 -11.424641990008755 0 0 0
941 1 -15.974037350869636 -5.782859191287447 -11.99767670602429 0 0 0
1052 2 -0.9425966602093481 -7.01946718337481 -12.36058870876175 0 0 0
1026 2 7.495323083128465 -6.104941859890214 -11.515678349656834 0 0 0
331 1 -17.93628660993277 -4.746203971025539 -12.519492213422959 0 0 0
1070 2 -2.9927559478016352 -5.467553122965444 -12.48433763877943 0 0 0
750 1 -14.445670856470738 -4.1269652875462866 -11.951957314548972 0 0 0
69 1 10.481904924215783 -1.965259424931292 -12.841040181762272 0 0 0
396 1 -17.181790592898817 0.26508910587923745 -11.957519790929624 0 0 0
201 1 19.02107917032896 0.11553966123120102 -12.435990060093015 0 0 0
12 1 -9.79102849484935 2.184087066996881 -12.04866498338462 0 0 0
1128 2 -4.87166238709896 1.9702600277821798 -11.67942612975809 0 0 0
829 1 -14.384303425617658 3.0123256440331794 -11.842900734321635 0 0 0
1054 2 -0.5384782597091129 4.222499982056741 -12.520745286098972 0 0 0
543 1 15.208778552535898 4.771742159997079 -12.331273797245634 0 0 0
1063 2 -1.3699690297026033 6.378767368494902 -11.480442634565746 0 0 0
938 1 11.866872157839534 6.520356809031384 -12.363110609521675 0 0 0
627 1 -4.148853436165395 9.699225965391923 -11.632739491658167 0 0 0
803 1 16.40946782964615 8.635531543549959 -11.840792370935441 0 0 0
253 1 -14.440621058015735 11.32027835196809 -12.460058676529524 0 0 0
422 1 -13.02528193105131 10.254032193146827 -12.756045056943105 0 0 0
443 1 2.892848461834898 11.032322186646335 -12.70441659588719 0 0 0
421 1 4.078377524596699 11.172862848157392 -12.588625204376337 0 0 0
810 1 -3.558431478936709 11.612285412946457 -12.84837953660606 0 0 0
408 1 5.387572227038568 12.116388758302781 -12.016217458556806 0 0 0
263 1 -18.732430716762657 13.343967849893906 -12.204104019698853 0 0 0
416 1 -13.96714135723521 14.25520894781463 -12.703214079469076 0 0 0
974 1 10.914905383225662 14.216366449604193 -12.411757144746964 0 0 0
511 1 12.515776149580104 13.025950091015057 -11.711392542359185 0 0 0
65 1 5.722322196570374 15.06915775829421 -12.665556349170188 0 0 0
478 1 -10.525086702252597 17.073371141382317 -11.614018029009227 0 0 0
761 1 -10.975761690470925 18.167692354362195 -11.831808992927579 0 0 0
291 1 16.517947836088922 17.14928114653997 -12.031770102694523 0 0 0
85 1 1.197062123932075 18.91797427785379 -12.189692240744247 0 0 0
135 1 15.097279788505887 19.981405418357532 -12.519133664909347 0 0 0
418 1 -19.35498161211376 -19.17595479599012 -10.272256205916525 0 0 0
983 1 -7.1176302891446035 -17.58429198463163 -10.589230843074956 0 0 0
383 1 -10.471350888901366 -13.389402015424722 -10.432051242081805 0 0 0
633 1 3.62156200391313 -12.407400231998135 -11.17569919264675 0 0 0
6 1 16.923281902877278 -10.40105834156324 -10.587546653387857 0 0 0
406 1 -9.342667910613832 -7.409860631207616 -11.387500535858123 0 0 0
591 1 -11.410527203924826 -5.901352775635179 -10.801446917721755 0 0 0
998 1 17.255674448643745 -5.729476005507038 -10.176907974017325 0 0 0
1030 2 -5.8898854618930105 -5.958417170031852 -10.153078029240316 0 0 0
1038 2 -3.438180206441274 -5.1717454046640245 -9.997752401162233 0 0 0
710 1 10.292928758606323 -4.856837313885397 -10.487959964478863 0 0 0
1083 2 8.70815874536758 -3.8654833967598092 -11.131831601738357 0 0 0
1149 2 -5.389443466155531 -0.37633567600340356 -10.147413178415697 0 0 0
643 1 19.932959692317954 0.4443773283989693 -11.052199945515389 0 0 0
1142 2 -2.613408835033643 4.379349102468168 -10.237448302986634 0 0 0
623 1 -18.91319876486119 5.86835897800902 -10.490656602424874 0 0 0
1031 2 3.195460407620045 6.103070870089844 -11.375772800005867 0 0 0
10 1 -8.476859120874135 9.4287554684229 -10.906842216340285 0 0 0
605 1 17.751198391250103 9.681643059828986 -11.405648639099407 0 0 0
393 1 -6.001779822656055 10.437441120204209 -10.87423796645193 0 0 0
924 1 -0.5182244165419725 10.202231179085665 -11.100573107181384 0 0 0
368 1 -16.98673148929125 11.598323993336317 -11.377525985623397 0 0 0
781 1 -18.341774771129998 12.889932627254884 -10.221694551495668 0 0 0
217 1 -0.3775093538321283 17.55490907443218 -11.366570535044724 0 0 0
506 1 8.556998031473249 17.465914970946457 -10.367083302869966 0 0 0
760 1 12.264136270557382 17.80505749382319 -10.445253332892884 0 0 0
664 1 13.734355515762866 17.17874537798818 -11.23718725571217 0 0 0
567 1 1.3010105640813907 18.587778538960357 -10.78028178564891 0 0 0
946 1 -6.677652982132014 -19.30329613828307 -9.864917600396112 0 0 0
578 1 3.389177192044794 -19.628024491351475 -8.712004549181664 0 0 0
330 1 -6.892464889527369 -17.851097075781006 -9.53593990096983 0 0 0
259 1 -15.420551582866391 -16.239947170219192 -9.358555968930117 0 0 0
881 1 3.460064115811185 -16.277593209084873 -8.810293217532186 0 0 0
382 1 -8.694892092000178 -15.051390246977746 -8.715880954971482 0 0 0
313 1 -18.033809288420624 -14.23271048545498 -9.16512904184178 0 0 0
631 1 -15.268468616543462 -13.817066391124412 -9.656765632994965 0 0 0
192 1 -3.7252771267326543 -12.864202243147265 -9.473832683225767 0 0 0
199 1 12.310610007154512 -13.38264796557726 -9.563983543897777 0 0 0
565 1 -9.648003286557925 -12.59622492890935 -10.000002180674713 0 0 0
895 1 -5.2955568567441 -12.599079784644617 -9.655793757289668 0 0 0
602 1 -13.089960405771507 -7.668920144535886 -9.992399962113232 0 0 0
512 1 19.369247985949187 -5.517619612886696 -9.076670456527504 0 0 0
228 1 -19.467112946777004 -2.2820178306199 -9.953766069169903 0 0 0
485 1 -18.87657434695343 -1.275205659439669 -9.86359152798715 0 0 0
900 1 -17.759060325965095 0.340634572203402 -9.459795268522583 0 0 0
625 1 -11.490369584174067 1.3583987864471965 -9.391596181966175 0 0 0
651 1 -15.500568577787172 1.9439131309948436 -8.652007369628178 0 0 0
683 1 18.114185257867994 5.111628987412725 -8.851608554297876 0 0 0
733 1 -11.392517327979448 5.961268649418496 -8.95780922330814 0 0 0
1077 2 -4.497107221674961 5.535755116126608 -8.687010694260973 0 0 0
1007 2 -2.3318244394129306 6.793316973501652 -9.203680509743759 0 0 0
1072 2 7.2175759902305785 5.799667805339986 -9.966391301698234 0 0 0
242 1 15.749944530928179 5.95354614925389 -8.552622753132422 0 0 0
681 1 -19.186663142958032 9.752556304332131 -8.786193089925774 0 0 0
355 1 -8.560006222017112 11.975426558393714 -9.005833076781515 0 0 0
484 1 -6.777288758557889 14.107834917543379 -9.618540848427703 0 0 0
952 1 -11.365831806960436 14.464820415929339 -9.763269475550981 0 0 0
735 1 -4.071257405016226 14.376793892298267 -9.225052143086238 0 0 0
513 1 12.646899483196513 17.134574314843874 -9.587774911453975 0 0 0
442 1 -6.580121192624362 19.56729991917074 -9.900133114109925 0 0 0
826 1 2.3045886787682797 19.998310941105462 -9.002683696742542 0 0 0
655 1 -7.159135780362083 -19.50389833626687 -7.601509154846494 0 0 0
876 1 12.704157340099547 19.964018038379855 -7.329195397474397 0 -1 0
948 1 -16.72736857833435 -17.18917398552715 -7.6587786549138 0 0 0
483 1 -11.287307811624421 -17.81899685564317 -7.757733173092478 0 0 0
162 1 -3.4092037861278293 -18.488033450435864 -8.378201475543063 0 0 0
953 1 -11.270342419138203 -16.189833364463322 -7.231190882695778 0 0 0
608 1 -4.751348562888499 -15.915296466981665 -8.387720560835543 0 0 0
152 1 4.560906467160619 -15.269818783850319 -8.543072044205706 0 0 0
972 1 9.130994951879138 -15.367843767333703 -7.350197577546442 0 0 0
818 1 12.167842650033487 -14.672457246054796 -7.527366860299402 0 0 0
836 1 19.84799791120365 -14.699106400226757 -7.881268611122515 0 0 0
690 1 -14.89101072907476 -12.603462859581395 -7.2240816447165255 0 0 0
240 1 4.737849489730593 -12.429619838329302 -7.5934662991866055 0 0 0
850 1 -16.201305305411264 -11.292262009343014 -7.943648917663116 0 0 0
441 1 11.423211782902115 -10.07956476420144 -7.244991933575362 0 0 0
601 1 -15.384598483976255 -8.946720188924447 -7.526215253177199 0 0 0
1005 2 1.4122387178053875 -9.146036077881584 -7.408521160520018 0 0 0
768 1 19.566173599685204 -9.41462278997719 -7.722760517442474 0 0 0
1099 2 -2.078214237502875 -8.546689710834386 -8.427939987009363 0 0 0
311 1 16.11635576709387 -6.0901686313302585 -8.146666680611535 0 0 0
999 1 -12.458083390642933 -5.0990463896911224 -7.757818470327756 0 0 0
1127 2 8.629259121881676 -2.142169941880816 -8.14790631585327 0 0 0
700 1 -13.929939919118741 -0.5002206286882149 -7.208106362823445 0 0 0
1058 2 4.299854573890439 -0.5937232262699514 -7.869834292968692 0 0 0
243 1 10.369771155716522 -1.1559544652104194 -7.51330613947026 0 0 0
1066 2 2.8250333974652144 1.4401948946172114 -7.343491022321666 0 0 0
470 1 17.976298055336432 0.4608602161814976 -7.953221325560049 0 0 0
309 1 16.77365408713965 1.9847983793272381 -7.862763959099958 0 0 0
449 1 11.281240969561619 3.8169754221183148 -8.09408045750767 0 0 0
491 1 -19.04893241778432 4.592854298927289 -7.897797929075452 0 0 0
508 1 15.485293722785993 4.695784024667573 -8.155144148898847 0 0 0
1104 2 0.33192714671400647 6.7889812882778005 -7.737918490993501 0 0 0
837 1 19.518452863916032 6.637283836788164 -7.170555101321337 0 0 0
450 1 6.036081810498647 8.426989050780882 -7.5950235256902054 0 0 0
1009 2 -1.1346655856513728 9.67550195738464 -7.677204472793825 0 0 0
630 1 -15.503721051053903 10.732046873899165 -7.412620003014214 0 0 0
667 1 14.951103948625033 10.032137450504202 -8.114370581124463 0 0 0
860 1 -14.142126808573595 11.50297636676908 -8.55177408580373 0 0 0
663 1 14.68039216225985 13.351071101311163 -8.548000263305383 0 0 0
481 1 -18.831877070991386 15.156143620554632 -8.459445234604988 0 0 0
26 1 -7.338837137137929 16.16423612281877 -7.683483784870935 0 0 0
159 1 12.518332744629367 16.591128567266793 -8.06657833211304 0 0 0
778 1 -18.933776713286303 17.500704024348526 -7.902186877977054 0 0 0
725 1 -15.71085707462399 17.70159052337615 -8.2796298824369 0 0 0
718 1 7.086304430288524 18.6263998224969 -8.528210924803597 0 0 0
245 1 11.733245120828245 19.45914277510037 -7.6070124403867325 0 0 0
694 1 -11.707393008470008 -18.572891562848714 -6.009082072451191 0 0 0
53 1 0.9614045037587218 -18.918368226839526 -7.053171958631989 0 0 0
758 1 19.03274816346696 -17.91968406495943 -6.325692682373233 0 0 0
712 1 19.64887896571135 -16.71030259197163 -6.036193498513314 0 0 0
123 1 0.2372286935510246 -12.89734748792711 -5.719229590948311 0 0 0
432 1 4.785164493900453 -14.274357274656833 -6.149871658813687 0 0 0
964 1 11.225602871761971 -13.88361972618816 -7.058679540128635 0 0 0
459 1 -17.058763357644963 -11.295618676612726 -5.743239280269875 0 0 0
523 1 0.12286374251151029 -10.386913376052023 -6.4617656943349 0 0 0
864 1 -12.814260997257318 -9.28458090372597 -5.9512489223625735 0 0 0
440 1 -8.37086369673296 -9.106150990867125 -7.079703503791103 0 0 0
23 1 17.823098524391227 -7.183100556574342 -6.371054344983332 0 0 0
140 1 -14.776460227419541 -6.234822397841604 -5.789172008911196 0 0 0
932 1 -13.412841616275974 -6.006402235882724 -6.523571197215363 0 0 0
219 1 12.597128056011721 -5.938836550430577 -6.479557417604742 0 0 0
279 1 12.001384455967381 -6.861374616905029 -6.6695319919687694 0 0 0
507 1 -11.150468245423008 -4.872608128002859 -6.795726093947035 0 0 0
1029 2 5.793069298339889 -5.513325363441802 -7.236093064624332 0 0 0
1123 2 -8.025405452598541 -2.9894418236750377 -7.097461012703114 0 0 0
1086 2 5.944667901262357 -0.8209205773870769 -5.912303149157737 0 0 0
19 1 -16.120677153326977 2.3421492506832697 -6.248696234035503 0 0 0
285 1 -16.49245560092273 4.202097475970465 -5.635554351414671 0 0 0
430 1 -12.772896808000699 5.923347932250866 -6.291302659684469 0 0 0
1108 2 0.7576231220975943 8.284310165178118 -5.648430239281956 0 0 0
892 1 -17.464812546026575 9.390290989715902 -5.754621732826415 0 0 0
874 1 15.65006831521514 9.403872171711054 -5.922484675454635 0 0 0
1000 1 2.218475404250137 10.649398138372531 -6.690891443814231 0 0 0
254 1 8.639898760542227 10.778468433198736 -6.281043228824178 0 0 0
87 1 14.041282865186934 11.282102036091498 -6.308384173562824 0 0 0
535 1 -10.453188583584739 15.347951469024975 -6.4381695989170264 0 0 0
357 1 6.0174192236817525 14.76489241922502 -6.453110085079963 0 0 0
121 1 17.84411831082298 15.234856004273826 -5.845014981674548 0 0 0
615 1 -15.424133356341562 16.514236238633185 -6.319981026730599 0 0 0
172 1 -2.810340706746309 17.22807224618125 -6.291365156506462 0 0 0
360 1 -3.1494592376581108 16.414262148740463 -6.994459394408034 0 0 0
167 1 16.058561806742418 15.959701800682032 -6.08545967958119 0 0 0
616 1 7.87162069518276 19.221183973329786 -7.130932616045909 0 0 0
312 1 19.1569350631541 19.902954143114137 -7.012326929266317 0 0 0
819 1 0.7812394368370444 -19.818396630042717 -5.332038701797735 0 0 0
904 1 0.8435193506295137 -19.28214753395894 -4.3446104128306136 0 0 0
106 1 -4.943344670405178 -18.286512251855065 -4.947327305781195 0 0 0
209 1 -3.7802456988861053 -14.589461178793321 -5.074031979345733 0 0 0
37 1 -2.580817027540347 -11.823526404937272 -5.11211312472923 0 0 0
203 1 18.788102836860812 -10.261308181151643 -5.649071244869429 0 0 0
91 1 -16.65828890000239 -7.158529521301184 -4.586438328798789 0 0 0
1092 2 -3.481082699019966 -6.556922428569255 -4.39051392692631 0 0 0
1032 2 2.781985140504154 -7.378609846893165 -4.135388012920726 0 0 0
1111 2 5.313185904299592 -6.518886002736493 -4.619733717111602 0 0 0
1076 2 7.736911208010405 -6.667058540859912 -5.858833854398315 0 0 0
239 1 -15.591314637843201 -3.2251182306674835 -4.562102828436579 0 0 0
589 1 -13.00127459969788 -2.8336454206327515 -4.4517301743094295 0 0 0
1114 2 -0.3570804979452298 -1.4519289654921401 -5.140246052825939 0 0 0
624 1 11.185791767754495 -0.39775935020193387 -5.141398843909332 0 0 0
315 1 15.486322751029547 -1.3735234464395454 -4.808564309407288 0 0 0
863 1 -19.125617749309175 1.392062271005044 -4.75059717264546 0 0 0
373 1 17.959700340715507 0.7427086271014649 -4.817389797580419 0 0 0
58 1 -15.449340191435347 2.5835501569748662 -5.387868661202477 0 0 0
27 1 -16.328925756314003 4.63421861822914 -4.533341030270241 0 0 0
1138 2 7.580631796943666 4.618726884454646 -5.197943269068693 0 0 0
824 1 9.208228924005985 5.763410116284059 -4.796602258662631 0 0 0
691 1 -17.54708594313962 9.634870418506964 -4.659676403171547 0 0 0
1084 2 2.770804219514311 9.662987939551165 -5.101718057816872 0 0 0
806 1 -15.56288321486415 10.618738953454724 -4.552323148825261 0 0 0
397 1 -12.839356552433381 11.038179287584876 -4.477134177972381 0 0 0
957 1 -11.327824656374213 11.147244283186557 -5.108911866549606 0 0 0
843 1 -1.478518682819237 11.265129154198492 -5.436724529610411 0 0 0
549 1 0.797250299586026 10.392753197066261 -5.1322441919521715 0 0 0
122 1 14.354499663616293 11.101088299493911 -4.361069814223655 0 0 0
294 1 -16.14725021466019 13.16564220616857 -5.051440924895667 0 0 0
738 1 18.71192308515892 13.627922657437127 -4.866586920649988 0 0 0
468 1 -10.160212101370512 15.226736488074978 -4.781335422068123 0 0 0
136 1 12.82648970970255 14.812550970731564 -5.455834914676769 0 0 0
458 1 19.08767715461709 15.403485374728952 -5.39511390989675 0 0 0
185 1 -6.449765967716871 16.683467397601223 -5.031867514398877 0 0 0
343 1 -0.04099248377944755 16.819178674566317 -5.445660786730726 0 0 0
176 1 -7.039034824226725 18.600466435136376 -5.172945837923618 0 0 0
510 1 -1.2258336900483218 18.930636133331348 -5.048325935603039 0 0 0
804 1 2.762019085219948 19.06340187566338 -5.372833610103527 0 0 0
139 1 18.103276649687274 19.41657152058034 -5.0677110203115845 0 0 0