 # "Ce32 O64"
  
          96  atoms
           2  atom types
 
0.0 13.777974000000004 xlo xhi
0.0 13.777974000000004 ylo yhi
0.0 13.777974000000004 zlo zhi
 
Masses
 
            1   140.11600000            # Ce
            2   15.99900000             # O
 
Atoms
 
1 1 4.0 0.0 0.0 0.0
2 1 4.0 0.0 3.444493500000001 3.444493500000001
3 1 4.0 3.444493500000001 0.0 3.444493500000001
4 1 4.0 3.444493500000001 3.444493500000001 0.0
5 2 -2.0 1.7222467500000005 1.7222467500000005 5.16674025
6 2 -2.0 1.7222467500000005 5.16674025 5.16674025
7 2 -2.0 1.7222467500000005 5.16674025 1.7222467500000005
8 2 -2.0 1.7222467500000005 1.7222467500000005 1.7222467500000005
9 2 -2.0 5.16674025 1.7222467500000005 1.7222467500000005
10 2 -2.0 5.16674025 5.16674025 1.7222467500000005
11 2 -2.0 5.16674025 5.16674025 5.16674025
12 2 -2.0 5.16674025 1.7222467500000005 5.16674025
13 1 4.0 0.0 0.0 6.888987000000002
14 1 4.0 0.0 3.444493500000001 10.3334805
15 1 4.0 3.444493500000001 13.777974000000004 10.3334805
16 1 4.0 3.444493500000001 3.444493500000001 6.888987000000002
17 2 -2.0 1.7222467500000005 1.7222467500000005 12.055727250000004
18 2 -2.0 1.7222467500000005 5.16674025 12.055727250000004
19 2 -2.0 1.7222467500000005 5.16674025 8.611233750000002
20 2 -2.0 1.7222467500000005 1.7222467500000005 8.611233750000002
21 2 -2.0 5.16674025 1.7222467500000005 8.611233750000002
22 2 -2.0 5.16674025 5.16674025 8.611233750000002
23 2 -2.0 5.16674025 5.16674025 12.055727250000004
24 2 -2.0 5.16674025 1.7222467500000005 12.055727250000004
25 1 4.0 0.0 6.888987000000002 0.0
26 1 4.0 0.0 10.3334805 3.444493500000001
27 1 4.0 3.444493500000001 6.888987000000002 3.444493500000001
28 1 4.0 3.444493500000001 10.3334805 0.0
29 2 -2.0 1.7222467500000005 8.611233750000002 5.16674025
30 2 -2.0 1.7222467500000005 12.055727250000004 5.16674025
31 2 -2.0 1.7222467500000005 12.055727250000004 1.7222467500000005
32 2 -2.0 1.7222467500000005 8.611233750000002 1.7222467500000005
33 2 -2.0 5.16674025 8.611233750000002 1.7222467500000005
34 2 -2.0 5.16674025 12.055727250000004 1.7222467500000005
35 2 -2.0 5.16674025 12.055727250000004 5.16674025
36 2 -2.0 5.16674025 8.611233750000002 5.16674025
37 1 4.0 0.0 6.888987000000002 6.888987000000002
38 1 4.0 0.0 10.3334805 10.3334805
39 1 4.0 3.444493500000001 6.888987000000002 10.3334805
40 1 4.0 3.444493500000001 10.3334805 6.888987000000002
41 2 -2.0 1.7222467500000005 8.611233750000002 12.055727250000004
42 2 -2.0 1.7222467500000005 12.055727250000004 12.055727250000004
43 2 -2.0 1.7222467500000005 12.055727250000004 8.611233750000002
44 2 -2.0 1.7222467500000005 8.611233750000002 8.611233750000002
45 2 -2.0 5.16674025 8.611233750000002 8.611233750000002
46 2 -2.0 5.16674025 12.055727250000004 8.611233750000002
47 2 -2.0 5.16674025 12.055727250000004 12.055727250000004
48 2 -2.0 5.16674025 8.611233750000002 12.055727250000004
49 1 4.0 6.888987000000002 0.0 0.0
50 1 4.0 6.888987000000002 3.444493500000001 3.444493500000001
51 1 4.0 10.3334805 0.0 3.444493500000001
52 1 4.0 10.3334805 3.444493500000001 0.0
53 2 -2.0 8.611233750000002 1.7222467500000005 5.16674025
54 2 -2.0 8.611233750000002 5.16674025 5.16674025
55 2 -2.0 8.611233750000002 5.16674025 1.7222467500000005
56 2 -2.0 8.611233750000002 1.7222467500000005 1.7222467500000005
57 2 -2.0 12.055727250000004 1.7222467500000005 1.7222467500000005
58 2 -2.0 12.055727250000004 5.16674025 1.7222467500000005
59 2 -2.0 12.055727250000004 5.16674025 5.16674025
60 2 -2.0 12.055727250000004 1.7222467500000005 5.16674025
61 1 4.0 6.888987000000002 0.0 6.888987000000002
62 1 4.0 6.888987000000002 3.444493500000001 10.3334805
63 1 4.0 10.3334805 13.777974000000004 10.3334805
64 1 4.0 10.3334805 3.444493500000001 6.888987000000002
65 2 -2.0 8.611233750000002 1.7222467500000005 12.055727250000004
66 2 -2.0 8.611233750000002 5.16674025 12.055727250000004
67 2 -2.0 8.611233750000002 5.16674025 8.611233750000002
68 2 -2.0 8.611233750000002 1.7222467500000005 8.611233750000002
69 2 -2.0 12.055727250000004 1.7222467500000005 8.611233750000002
70 2 -2.0 12.055727250000004 5.16674025 8.611233750000002
71 2 -2.0 12.055727250000004 5.16674025 12.055727250000004
72 2 -2.0 12.055727250000004 1.7222467500000005 12.055727250000004
73 1 4.0 6.888987000000002 6.888987000000002 0.0
74 1 4.0 6.888987000000002 10.3334805 3.444493500000001
75 1 4.0 10.3334805 6.888987000000002 3.444493500000001
76 1 4.0 10.3334805 10.3334805 0.0
77 2 -2.0 8.611233750000002 8.611233750000002 5.16674025
78 2 -2.0 8.611233750000002 12.055727250000004 5.16674025
79 2 -2.0 8.611233750000002 12.055727250000004 1.7222467500000005
80 2 -2.0 8.611233750000002 8.611233750000002 1.7222467500000005
81 2 -2.0 12.055727250000004 8.611233750000002 1.7222467500000005
82 2 -2.0 12.055727250000004 12.055727250000004 1.7222467500000005
83 2 -2.0 12.055727250000004 12.055727250000004 5.16674025
84 2 -2.0 12.055727250000004 8.611233750000002 5.16674025
85 1 4.0 6.888987000000002 6.888987000000002 6.888987000000002
86 1 4.0 6.888987000000002 10.3334805 10.3334805
87 1 4.0 10.3334805 6.888987000000002 10.3334805
88 1 4.0 10.3334805 10.3334805 6.888987000000002
89 2 -2.0 8.611233750000002 8.611233750000002 12.055727250000004
90 2 -2.0 8.611233750000002 12.055727250000004 12.055727250000004
91 2 -2.0 8.611233750000002 12.055727250000004 8.611233750000002
92 2 -2.0 8.611233750000002 8.611233750000002 8.611233750000002
93 2 -2.0 12.055727250000004 8.611233750000002 8.611233750000002
94 2 -2.0 12.055727250000004 12.055727250000004 8.611233750000002
95 2 -2.0 12.055727250000004 12.055727250000004 12.055727250000004
96 2 -2.0 12.055727250000004 8.611233750000002 12.055727250000004
