 # "Ce32 O64"
  
          96  atoms
           2  atom types
 
0.0 14.324719000000004 xlo xhi
0.0 14.324719000000004 ylo yhi
0.0 14.324719000000004 zlo zhi
 
Masses
 
            1   140.11600000            # Ce
            2   15.99900000             # O
 
Atoms
 
1 1 4.0 0.0 0.0 0.0
2 1 4.0 0.0 3.581179750000001 3.581179750000001
3 1 4.0 3.581179750000001 0.0 3.581179750000001
4 1 4.0 3.581179750000001 3.581179750000001 0.0
5 2 -2.0 1.7905898750000004 1.7905898750000004 5.371769625000001
6 2 -2.0 1.7905898750000004 5.371769625000001 5.371769625000001
7 2 -2.0 1.7905898750000004 5.371769625000001 1.7905898750000004
8 2 -2.0 1.7905898750000004 1.7905898750000004 1.7905898750000004
9 2 -2.0 5.371769625000001 1.7905898750000004 1.7905898750000004
10 2 -2.0 5.371769625000001 5.371769625000001 1.7905898750000004
11 2 -2.0 5.371769625000001 5.371769625000001 5.371769625000001
12 2 -2.0 5.371769625000001 1.7905898750000004 5.371769625000001
13 1 4.0 0.0 0.0 7.162359500000002
14 1 4.0 0.0 3.581179750000001 10.743539250000001
15 1 4.0 3.581179750000001 14.324719000000004 10.743539250000001
16 1 4.0 3.581179750000001 3.581179750000001 7.162359500000002
17 2 -2.0 1.7905898750000004 1.7905898750000004 12.534129125000003
18 2 -2.0 1.7905898750000004 5.371769625000001 12.534129125000003
19 2 -2.0 1.7905898750000004 5.371769625000001 8.952949375000003
20 2 -2.0 1.7905898750000004 1.7905898750000004 8.952949375000003
21 2 -2.0 5.371769625000001 1.7905898750000004 8.952949375000003
22 2 -2.0 5.371769625000001 5.371769625000001 8.952949375000003
23 2 -2.0 5.371769625000001 5.371769625000001 12.534129125000003
24 2 -2.0 5.371769625000001 1.7905898750000004 12.534129125000003
25 1 4.0 0.0 7.162359500000002 0.0
26 1 4.0 0.0 10.743539250000001 3.581179750000001
27 1 4.0 3.581179750000001 7.162359500000002 3.581179750000001
28 1 4.0 3.581179750000001 10.743539250000001 0.0
29 2 -2.0 1.7905898750000004 8.952949375000003 5.371769625000001
30 2 -2.0 1.7905898750000004 12.534129125000003 5.371769625000001
31 2 -2.0 1.7905898750000004 12.534129125000003 1.7905898750000004
32 2 -2.0 1.7905898750000004 8.952949375000003 1.7905898750000004
33 2 -2.0 5.371769625000001 8.952949375000003 1.7905898750000004
34 2 -2.0 5.371769625000001 12.534129125000003 1.7905898750000004
35 2 -2.0 5.371769625000001 12.534129125000003 5.371769625000001
36 2 -2.0 5.371769625000001 8.952949375000003 5.371769625000001
37 1 4.0 0.0 7.162359500000002 7.162359500000002
38 1 4.0 0.0 10.743539250000001 10.743539250000001
39 1 4.0 3.581179750000001 7.162359500000002 10.743539250000001
40 1 4.0 3.581179750000001 10.743539250000001 7.162359500000002
41 2 -2.0 1.7905898750000004 8.952949375000003 12.534129125000003
42 2 -2.0 1.7905898750000004 12.534129125000003 12.534129125000003
43 2 -2.0 1.7905898750000004 12.534129125000003 8.952949375000003
44 2 -2.0 1.7905898750000004 8.952949375000003 8.952949375000003
45 2 -2.0 5.371769625000001 8.952949375000003 8.952949375000003
46 2 -2.0 5.371769625000001 12.534129125000003 8.952949375000003
47 2 -2.0 5.371769625000001 12.534129125000003 12.534129125000003
48 2 -2.0 5.371769625000001 8.952949375000003 12.534129125000003
49 1 4.0 7.162359500000002 0.0 0.0
50 1 4.0 7.162359500000002 3.581179750000001 3.581179750000001
51 1 4.0 10.743539250000001 0.0 3.581179750000001
52 1 4.0 10.743539250000001 3.581179750000001 0.0
53 2 -2.0 8.952949375000003 1.7905898750000004 5.371769625000001
54 2 -2.0 8.952949375000003 5.371769625000001 5.371769625000001
55 2 -2.0 8.952949375000003 5.371769625000001 1.7905898750000004
56 2 -2.0 8.952949375000003 1.7905898750000004 1.7905898750000004
57 2 -2.0 12.534129125000003 1.7905898750000004 1.7905898750000004
58 2 -2.0 12.534129125000003 5.371769625000001 1.7905898750000004
59 2 -2.0 12.534129125000003 5.371769625000001 5.371769625000001
60 2 -2.0 12.534129125000003 1.7905898750000004 5.371769625000001
61 1 4.0 7.162359500000002 0.0 7.162359500000002
62 1 4.0 7.162359500000002 3.581179750000001 10.743539250000001
63 1 4.0 10.743539250000001 14.324719000000004 10.743539250000001
64 1 4.0 10.743539250000001 3.581179750000001 7.162359500000002
65 2 -2.0 8.952949375000003 1.7905898750000004 12.534129125000003
66 2 -2.0 8.952949375000003 5.371769625000001 12.534129125000003
67 2 -2.0 8.952949375000003 5.371769625000001 8.952949375000003
68 2 -2.0 8.952949375000003 1.7905898750000004 8.952949375000003
69 2 -2.0 12.534129125000003 1.7905898750000004 8.952949375000003
70 2 -2.0 12.534129125000003 5.371769625000001 8.952949375000003
71 2 -2.0 12.534129125000003 5.371769625000001 12.534129125000003
72 2 -2.0 12.534129125000003 1.7905898750000004 12.534129125000003
73 1 4.0 7.162359500000002 7.162359500000002 0.0
74 1 4.0 7.162359500000002 10.743539250000001 3.581179750000001
75 1 4.0 10.743539250000001 7.162359500000002 3.581179750000001
76 1 4.0 10.743539250000001 10.743539250000001 0.0
77 2 -2.0 8.952949375000003 8.952949375000003 5.371769625000001
78 2 -2.0 8.952949375000003 12.534129125000003 5.371769625000001
79 2 -2.0 8.952949375000003 12.534129125000003 1.7905898750000004
80 2 -2.0 8.952949375000003 8.952949375000003 1.7905898750000004
81 2 -2.0 12.534129125000003 8.952949375000003 1.7905898750000004
82 2 -2.0 12.534129125000003 12.534129125000003 1.7905898750000004
83 2 -2.0 12.534129125000003 12.534129125000003 5.371769625000001
84 2 -2.0 12.534129125000003 8.952949375000003 5.371769625000001
85 1 4.0 7.162359500000002 7.162359500000002 7.162359500000002
86 1 4.0 7.162359500000002 10.743539250000001 10.743539250000001
87 1 4.0 10.743539250000001 7.162359500000002 10.743539250000001
88 1 4.0 10.743539250000001 10.743539250000001 7.162359500000002
89 2 -2.0 8.952949375000003 8.952949375000003 12.534129125000003
90 2 -2.0 8.952949375000003 12.534129125000003 12.534129125000003
91 2 -2.0 8.952949375000003 12.534129125000003 8.952949375000003
92 2 -2.0 8.952949375000003 8.952949375000003 8.952949375000003
93 2 -2.0 12.534129125000003 8.952949375000003 8.952949375000003
94 2 -2.0 12.534129125000003 12.534129125000003 8.952949375000003
95 2 -2.0 12.534129125000003 12.534129125000003 12.534129125000003
96 2 -2.0 12.534129125000003 8.952949375000003 12.534129125000003
