 # "Ce32 O64"
  
          96  atoms
           2  atom types
 
0.0 14.434068000000003 xlo xhi
0.0 14.434068000000003 ylo yhi
0.0 14.434068000000003 zlo zhi
 
Masses
 
            1   140.11600000            # Ce
            2   15.99900000             # O
 
Atoms
 
1 1 4.0 0.0 0.0 0.0
2 1 4.0 0.0 3.608517000000001 3.608517000000001
3 1 4.0 3.608517000000001 0.0 3.608517000000001
4 1 4.0 3.608517000000001 3.608517000000001 0.0
5 2 -2.0 1.8042585000000004 1.8042585000000004 5.4127755
6 2 -2.0 1.8042585000000004 5.4127755 5.4127755
7 2 -2.0 1.8042585000000004 5.4127755 1.8042585000000004
8 2 -2.0 1.8042585000000004 1.8042585000000004 1.8042585000000004
9 2 -2.0 5.4127755 1.8042585000000004 1.8042585000000004
10 2 -2.0 5.4127755 5.4127755 1.8042585000000004
11 2 -2.0 5.4127755 5.4127755 5.4127755
12 2 -2.0 5.4127755 1.8042585000000004 5.4127755
13 1 4.0 0.0 0.0 7.217034000000002
14 1 4.0 0.0 3.608517000000001 10.825551
15 1 4.0 3.608517000000001 14.434068000000003 10.825551
16 1 4.0 3.608517000000001 3.608517000000001 7.217034000000002
17 2 -2.0 1.8042585000000004 1.8042585000000004 12.629809500000004
18 2 -2.0 1.8042585000000004 5.4127755 12.629809500000004
19 2 -2.0 1.8042585000000004 5.4127755 9.021292500000003
20 2 -2.0 1.8042585000000004 1.8042585000000004 9.021292500000003
21 2 -2.0 5.4127755 1.8042585000000004 9.021292500000003
22 2 -2.0 5.4127755 5.4127755 9.021292500000003
23 2 -2.0 5.4127755 5.4127755 12.629809500000004
24 2 -2.0 5.4127755 1.8042585000000004 12.629809500000004
25 1 4.0 0.0 7.217034000000002 0.0
26 1 4.0 0.0 10.825551 3.608517000000001
27 1 4.0 3.608517000000001 7.217034000000002 3.608517000000001
28 1 4.0 3.608517000000001 10.825551 0.0
29 2 -2.0 1.8042585000000004 9.021292500000003 5.4127755
30 2 -2.0 1.8042585000000004 12.629809500000004 5.4127755
31 2 -2.0 1.8042585000000004 12.629809500000004 1.8042585000000004
32 2 -2.0 1.8042585000000004 9.021292500000003 1.8042585000000004
33 2 -2.0 5.4127755 9.021292500000003 1.8042585000000004
34 2 -2.0 5.4127755 12.629809500000004 1.8042585000000004
35 2 -2.0 5.4127755 12.629809500000004 5.4127755
36 2 -2.0 5.4127755 9.021292500000003 5.4127755
37 1 4.0 0.0 7.217034000000002 7.217034000000002
38 1 4.0 0.0 10.825551 10.825551
39 1 4.0 3.608517000000001 7.217034000000002 10.825551
40 1 4.0 3.608517000000001 10.825551 7.217034000000002
41 2 -2.0 1.8042585000000004 9.021292500000003 12.629809500000004
42 2 -2.0 1.8042585000000004 12.629809500000004 12.629809500000004
43 2 -2.0 1.8042585000000004 12.629809500000004 9.021292500000003
44 2 -2.0 1.8042585000000004 9.021292500000003 9.021292500000003
45 2 -2.0 5.4127755 9.021292500000003 9.021292500000003
46 2 -2.0 5.4127755 12.629809500000004 9.021292500000003
47 2 -2.0 5.4127755 12.629809500000004 12.629809500000004
48 2 -2.0 5.4127755 9.021292500000003 12.629809500000004
49 1 4.0 7.217034000000002 0.0 0.0
50 1 4.0 7.217034000000002 3.608517000000001 3.608517000000001
51 1 4.0 10.825551 0.0 3.608517000000001
52 1 4.0 10.825551 3.608517000000001 0.0
53 2 -2.0 9.021292500000003 1.8042585000000004 5.4127755
54 2 -2.0 9.021292500000003 5.4127755 5.4127755
55 2 -2.0 9.021292500000003 5.4127755 1.8042585000000004
56 2 -2.0 9.021292500000003 1.8042585000000004 1.8042585000000004
57 2 -2.0 12.629809500000004 1.8042585000000004 1.8042585000000004
58 2 -2.0 12.629809500000004 5.4127755 1.8042585000000004
59 2 -2.0 12.629809500000004 5.4127755 5.4127755
60 2 -2.0 12.629809500000004 1.8042585000000004 5.4127755
61 1 4.0 7.217034000000002 0.0 7.217034000000002
62 1 4.0 7.217034000000002 3.608517000000001 10.825551
63 1 4.0 10.825551 14.434068000000003 10.825551
64 1 4.0 10.825551 3.608517000000001 7.217034000000002
65 2 -2.0 9.021292500000003 1.8042585000000004 12.629809500000004
66 2 -2.0 9.021292500000003 5.4127755 12.629809500000004
67 2 -2.0 9.021292500000003 5.4127755 9.021292500000003
68 2 -2.0 9.021292500000003 1.8042585000000004 9.021292500000003
69 2 -2.0 12.629809500000004 1.8042585000000004 9.021292500000003
70 2 -2.0 12.629809500000004 5.4127755 9.021292500000003
71 2 -2.0 12.629809500000004 5.4127755 12.629809500000004
72 2 -2.0 12.629809500000004 1.8042585000000004 12.629809500000004
73 1 4.0 7.217034000000002 7.217034000000002 0.0
74 1 4.0 7.217034000000002 10.825551 3.608517000000001
75 1 4.0 10.825551 7.217034000000002 3.608517000000001
76 1 4.0 10.825551 10.825551 0.0
77 2 -2.0 9.021292500000003 9.021292500000003 5.4127755
78 2 -2.0 9.021292500000003 12.629809500000004 5.4127755
79 2 -2.0 9.021292500000003 12.629809500000004 1.8042585000000004
80 2 -2.0 9.021292500000003 9.021292500000003 1.8042585000000004
81 2 -2.0 12.629809500000004 9.021292500000003 1.8042585000000004
82 2 -2.0 12.629809500000004 12.629809500000004 1.8042585000000004
83 2 -2.0 12.629809500000004 12.629809500000004 5.4127755
84 2 -2.0 12.629809500000004 9.021292500000003 5.4127755
85 1 4.0 7.217034000000002 7.217034000000002 7.217034000000002
86 1 4.0 7.217034000000002 10.825551 10.825551
87 1 4.0 10.825551 7.217034000000002 10.825551
88 1 4.0 10.825551 10.825551 7.217034000000002
89 2 -2.0 9.021292500000003 9.021292500000003 12.629809500000004
90 2 -2.0 9.021292500000003 12.629809500000004 12.629809500000004
91 2 -2.0 9.021292500000003 12.629809500000004 9.021292500000003
92 2 -2.0 9.021292500000003 9.021292500000003 9.021292500000003
93 2 -2.0 12.629809500000004 9.021292500000003 9.021292500000003
94 2 -2.0 12.629809500000004 12.629809500000004 9.021292500000003
95 2 -2.0 12.629809500000004 12.629809500000004 12.629809500000004
96 2 -2.0 12.629809500000004 9.021292500000003 12.629809500000004
