 # "Ce32 O64"
  
          96  atoms
           2  atom types
 
0.0 15.964954000000006 xlo xhi
0.0 15.964954000000006 ylo yhi
0.0 15.964954000000006 zlo zhi
 
Masses
 
            1   140.11600000            # Ce
            2   15.99900000             # O
 
Atoms
 
1 1 4.0 0.0 0.0 0.0
2 1 4.0 0.0 3.9912385000000015 3.9912385000000015
3 1 4.0 3.9912385000000015 0.0 3.9912385000000015
4 1 4.0 3.9912385000000015 3.9912385000000015 0.0
5 2 -2.0 1.9956192500000007 1.9956192500000007 5.986857750000001
6 2 -2.0 1.9956192500000007 5.986857750000001 5.986857750000001
7 2 -2.0 1.9956192500000007 5.986857750000001 1.9956192500000007
8 2 -2.0 1.9956192500000007 1.9956192500000007 1.9956192500000007
9 2 -2.0 5.986857750000001 1.9956192500000007 1.9956192500000007
10 2 -2.0 5.986857750000001 5.986857750000001 1.9956192500000007
11 2 -2.0 5.986857750000001 5.986857750000001 5.986857750000001
12 2 -2.0 5.986857750000001 1.9956192500000007 5.986857750000001
13 1 4.0 0.0 0.0 7.982477000000003
14 1 4.0 0.0 3.9912385000000015 11.973715500000003
15 1 4.0 3.9912385000000015 15.964954000000006 11.973715500000003
16 1 4.0 3.9912385000000015 3.9912385000000015 7.982477000000003
17 2 -2.0 1.9956192500000007 1.9956192500000007 13.969334750000005
18 2 -2.0 1.9956192500000007 5.986857750000001 13.969334750000005
19 2 -2.0 1.9956192500000007 5.986857750000001 9.978096250000004
20 2 -2.0 1.9956192500000007 1.9956192500000007 9.978096250000004
21 2 -2.0 5.986857750000001 1.9956192500000007 9.978096250000004
22 2 -2.0 5.986857750000001 5.986857750000001 9.978096250000004
23 2 -2.0 5.986857750000001 5.986857750000001 13.969334750000005
24 2 -2.0 5.986857750000001 1.9956192500000007 13.969334750000005
25 1 4.0 0.0 7.982477000000003 0.0
26 1 4.0 0.0 11.973715500000003 3.9912385000000015
27 1 4.0 3.9912385000000015 7.982477000000003 3.9912385000000015
28 1 4.0 3.9912385000000015 11.973715500000003 0.0
29 2 -2.0 1.9956192500000007 9.978096250000004 5.986857750000001
30 2 -2.0 1.9956192500000007 13.969334750000005 5.986857750000001
31 2 -2.0 1.9956192500000007 13.969334750000005 1.9956192500000007
32 2 -2.0 1.9956192500000007 9.978096250000004 1.9956192500000007
33 2 -2.0 5.986857750000001 9.978096250000004 1.9956192500000007
34 2 -2.0 5.986857750000001 13.969334750000005 1.9956192500000007
35 2 -2.0 5.986857750000001 13.969334750000005 5.986857750000001
36 2 -2.0 5.986857750000001 9.978096250000004 5.986857750000001
37 1 4.0 0.0 7.982477000000003 7.982477000000003
38 1 4.0 0.0 11.973715500000003 11.973715500000003
39 1 4.0 3.9912385000000015 7.982477000000003 11.973715500000003
40 1 4.0 3.9912385000000015 11.973715500000003 7.982477000000003
41 2 -2.0 1.9956192500000007 9.978096250000004 13.969334750000005
42 2 -2.0 1.9956192500000007 13.969334750000005 13.969334750000005
43 2 -2.0 1.9956192500000007 13.969334750000005 9.978096250000004
44 2 -2.0 1.9956192500000007 9.978096250000004 9.978096250000004
45 2 -2.0 5.986857750000001 9.978096250000004 9.978096250000004
46 2 -2.0 5.986857750000001 13.969334750000005 9.978096250000004
47 2 -2.0 5.986857750000001 13.969334750000005 13.969334750000005
48 2 -2.0 5.986857750000001 9.978096250000004 13.969334750000005
49 1 4.0 7.982477000000003 0.0 0.0
50 1 4.0 7.982477000000003 3.9912385000000015 3.9912385000000015
51 1 4.0 11.973715500000003 0.0 3.9912385000000015
52 1 4.0 11.973715500000003 3.9912385000000015 0.0
53 2 -2.0 9.978096250000004 1.9956192500000007 5.986857750000001
54 2 -2.0 9.978096250000004 5.986857750000001 5.986857750000001
55 2 -2.0 9.978096250000004 5.986857750000001 1.9956192500000007
56 2 -2.0 9.978096250000004 1.9956192500000007 1.9956192500000007
57 2 -2.0 13.969334750000005 1.9956192500000007 1.9956192500000007
58 2 -2.0 13.969334750000005 5.986857750000001 1.9956192500000007
59 2 -2.0 13.969334750000005 5.986857750000001 5.986857750000001
60 2 -2.0 13.969334750000005 1.9956192500000007 5.986857750000001
61 1 4.0 7.982477000000003 0.0 7.982477000000003
62 1 4.0 7.982477000000003 3.9912385000000015 11.973715500000003
63 1 4.0 11.973715500000003 15.964954000000006 11.973715500000003
64 1 4.0 11.973715500000003 3.9912385000000015 7.982477000000003
65 2 -2.0 9.978096250000004 1.9956192500000007 13.969334750000005
66 2 -2.0 9.978096250000004 5.986857750000001 13.969334750000005
67 2 -2.0 9.978096250000004 5.986857750000001 9.978096250000004
68 2 -2.0 9.978096250000004 1.9956192500000007 9.978096250000004
69 2 -2.0 13.969334750000005 1.9956192500000007 9.978096250000004
70 2 -2.0 13.969334750000005 5.986857750000001 9.978096250000004
71 2 -2.0 13.969334750000005 5.986857750000001 13.969334750000005
72 2 -2.0 13.969334750000005 1.9956192500000007 13.969334750000005
73 1 4.0 7.982477000000003 7.982477000000003 0.0
74 1 4.0 7.982477000000003 11.973715500000003 3.9912385000000015
75 1 4.0 11.973715500000003 7.982477000000003 3.9912385000000015
76 1 4.0 11.973715500000003 11.973715500000003 0.0
77 2 -2.0 9.978096250000004 9.978096250000004 5.986857750000001
78 2 -2.0 9.978096250000004 13.969334750000005 5.986857750000001
79 2 -2.0 9.978096250000004 13.969334750000005 1.9956192500000007
80 2 -2.0 9.978096250000004 9.978096250000004 1.9956192500000007
81 2 -2.0 13.969334750000005 9.978096250000004 1.9956192500000007
82 2 -2.0 13.969334750000005 13.969334750000005 1.9956192500000007
83 2 -2.0 13.969334750000005 13.969334750000005 5.986857750000001
84 2 -2.0 13.969334750000005 9.978096250000004 5.986857750000001
85 1 4.0 7.982477000000003 7.982477000000003 7.982477000000003
86 1 4.0 7.982477000000003 11.973715500000003 11.973715500000003
87 1 4.0 11.973715500000003 7.982477000000003 11.973715500000003
88 1 4.0 11.973715500000003 11.973715500000003 7.982477000000003
89 2 -2.0 9.978096250000004 9.978096250000004 13.969334750000005
90 2 -2.0 9.978096250000004 13.969334750000005 13.969334750000005
91 2 -2.0 9.978096250000004 13.969334750000005 9.978096250000004
92 2 -2.0 9.978096250000004 9.978096250000004 9.978096250000004
93 2 -2.0 13.969334750000005 9.978096250000004 9.978096250000004
94 2 -2.0 13.969334750000005 13.969334750000005 9.978096250000004
95 2 -2.0 13.969334750000005 13.969334750000005 13.969334750000005
96 2 -2.0 13.969334750000005 9.978096250000004 13.969334750000005
