 # "Ce32 O64"
  
          96  atoms
           2  atom types
 
0.0 17.933236000000008 xlo xhi
0.0 17.933236000000008 ylo yhi
0.0 17.933236000000008 zlo zhi
 
Masses
 
            1   140.11600000            # Ce
            2   15.99900000             # O
 
Atoms
 
1 1 4.0 0.0 0.0 0.0
2 1 4.0 0.0 4.483309000000002 4.483309000000002
3 1 4.0 4.483309000000002 0.0 4.483309000000002
4 1 4.0 4.483309000000002 4.483309000000002 0.0
5 2 -2.0 2.241654500000001 2.241654500000001 6.724963500000002
6 2 -2.0 2.241654500000001 6.724963500000002 6.724963500000002
7 2 -2.0 2.241654500000001 6.724963500000002 2.241654500000001
8 2 -2.0 2.241654500000001 2.241654500000001 2.241654500000001
9 2 -2.0 6.724963500000002 2.241654500000001 2.241654500000001
10 2 -2.0 6.724963500000002 6.724963500000002 2.241654500000001
11 2 -2.0 6.724963500000002 6.724963500000002 6.724963500000002
12 2 -2.0 6.724963500000002 2.241654500000001 6.724963500000002
13 1 4.0 0.0 0.0 8.966618000000004
14 1 4.0 0.0 4.483309000000002 13.449927000000004
15 1 4.0 4.483309000000002 17.933236000000008 13.449927000000004
16 1 4.0 4.483309000000002 4.483309000000002 8.966618000000004
17 2 -2.0 2.241654500000001 2.241654500000001 15.691581500000007
18 2 -2.0 2.241654500000001 6.724963500000002 15.691581500000007
19 2 -2.0 2.241654500000001 6.724963500000002 11.208272500000005
20 2 -2.0 2.241654500000001 2.241654500000001 11.208272500000005
21 2 -2.0 6.724963500000002 2.241654500000001 11.208272500000005
22 2 -2.0 6.724963500000002 6.724963500000002 11.208272500000005
23 2 -2.0 6.724963500000002 6.724963500000002 15.691581500000007
24 2 -2.0 6.724963500000002 2.241654500000001 15.691581500000007
25 1 4.0 0.0 8.966618000000004 0.0
26 1 4.0 0.0 13.449927000000004 4.483309000000002
27 1 4.0 4.483309000000002 8.966618000000004 4.483309000000002
28 1 4.0 4.483309000000002 13.449927000000004 0.0
29 2 -2.0 2.241654500000001 11.208272500000005 6.724963500000002
30 2 -2.0 2.241654500000001 15.691581500000007 6.724963500000002
31 2 -2.0 2.241654500000001 15.691581500000007 2.241654500000001
32 2 -2.0 2.241654500000001 11.208272500000005 2.241654500000001
33 2 -2.0 6.724963500000002 11.208272500000005 2.241654500000001
34 2 -2.0 6.724963500000002 15.691581500000007 2.241654500000001
35 2 -2.0 6.724963500000002 15.691581500000007 6.724963500000002
36 2 -2.0 6.724963500000002 11.208272500000005 6.724963500000002
37 1 4.0 0.0 8.966618000000004 8.966618000000004
38 1 4.0 0.0 13.449927000000004 13.449927000000004
39 1 4.0 4.483309000000002 8.966618000000004 13.449927000000004
40 1 4.0 4.483309000000002 13.449927000000004 8.966618000000004
41 2 -2.0 2.241654500000001 11.208272500000005 15.691581500000007
42 2 -2.0 2.241654500000001 15.691581500000007 15.691581500000007
43 2 -2.0 2.241654500000001 15.691581500000007 11.208272500000005
44 2 -2.0 2.241654500000001 11.208272500000005 11.208272500000005
45 2 -2.0 6.724963500000002 11.208272500000005 11.208272500000005
46 2 -2.0 6.724963500000002 15.691581500000007 11.208272500000005
47 2 -2.0 6.724963500000002 15.691581500000007 15.691581500000007
48 2 -2.0 6.724963500000002 11.208272500000005 15.691581500000007
49 1 4.0 8.966618000000004 0.0 0.0
50 1 4.0 8.966618000000004 4.483309000000002 4.483309000000002
51 1 4.0 13.449927000000004 0.0 4.483309000000002
52 1 4.0 13.449927000000004 4.483309000000002 0.0
53 2 -2.0 11.208272500000005 2.241654500000001 6.724963500000002
54 2 -2.0 11.208272500000005 6.724963500000002 6.724963500000002
55 2 -2.0 11.208272500000005 6.724963500000002 2.241654500000001
56 2 -2.0 11.208272500000005 2.241654500000001 2.241654500000001
57 2 -2.0 15.691581500000007 2.241654500000001 2.241654500000001
58 2 -2.0 15.691581500000007 6.724963500000002 2.241654500000001
59 2 -2.0 15.691581500000007 6.724963500000002 6.724963500000002
60 2 -2.0 15.691581500000007 2.241654500000001 6.724963500000002
61 1 4.0 8.966618000000004 0.0 8.966618000000004
62 1 4.0 8.966618000000004 4.483309000000002 13.449927000000004
63 1 4.0 13.449927000000004 17.933236000000008 13.449927000000004
64 1 4.0 13.449927000000004 4.483309000000002 8.966618000000004
65 2 -2.0 11.208272500000005 2.241654500000001 15.691581500000007
66 2 -2.0 11.208272500000005 6.724963500000002 15.691581500000007
67 2 -2.0 11.208272500000005 6.724963500000002 11.208272500000005
68 2 -2.0 11.208272500000005 2.241654500000001 11.208272500000005
69 2 -2.0 15.691581500000007 2.241654500000001 11.208272500000005
70 2 -2.0 15.691581500000007 6.724963500000002 11.208272500000005
71 2 -2.0 15.691581500000007 6.724963500000002 15.691581500000007
72 2 -2.0 15.691581500000007 2.241654500000001 15.691581500000007
73 1 4.0 8.966618000000004 8.966618000000004 0.0
74 1 4.0 8.966618000000004 13.449927000000004 4.483309000000002
75 1 4.0 13.449927000000004 8.966618000000004 4.483309000000002
76 1 4.0 13.449927000000004 13.449927000000004 0.0
77 2 -2.0 11.208272500000005 11.208272500000005 6.724963500000002
78 2 -2.0 11.208272500000005 15.691581500000007 6.724963500000002
79 2 -2.0 11.208272500000005 15.691581500000007 2.241654500000001
80 2 -2.0 11.208272500000005 11.208272500000005 2.241654500000001
81 2 -2.0 15.691581500000007 11.208272500000005 2.241654500000001
82 2 -2.0 15.691581500000007 15.691581500000007 2.241654500000001
83 2 -2.0 15.691581500000007 15.691581500000007 6.724963500000002
84 2 -2.0 15.691581500000007 11.208272500000005 6.724963500000002
85 1 4.0 8.966618000000004 8.966618000000004 8.966618000000004
86 1 4.0 8.966618000000004 13.449927000000004 13.449927000000004
87 1 4.0 13.449927000000004 8.966618000000004 13.449927000000004
88 1 4.0 13.449927000000004 13.449927000000004 8.966618000000004
89 2 -2.0 11.208272500000005 11.208272500000005 15.691581500000007
90 2 -2.0 11.208272500000005 15.691581500000007 15.691581500000007
91 2 -2.0 11.208272500000005 15.691581500000007 11.208272500000005
92 2 -2.0 11.208272500000005 11.208272500000005 11.208272500000005
93 2 -2.0 15.691581500000007 11.208272500000005 11.208272500000005
94 2 -2.0 15.691581500000007 15.691581500000007 11.208272500000005
95 2 -2.0 15.691581500000007 15.691581500000007 15.691581500000007
96 2 -2.0 15.691581500000007 11.208272500000005 15.691581500000007
