 # "Ce32 O64"
  
          96  atoms
           2  atom types
 
0.0 18.47998100000001 xlo xhi
0.0 18.47998100000001 ylo yhi
0.0 18.47998100000001 zlo zhi
 
Masses
 
            1   140.11600000            # Ce
            2   15.99900000             # O
 
Atoms
 
1 1 4.0 0.0 0.0 0.0
2 1 4.0 0.0 4.619995250000002 4.619995250000002
3 1 4.0 4.619995250000002 0.0 4.619995250000002
4 1 4.0 4.619995250000002 4.619995250000002 0.0
5 2 -2.0 2.309997625000001 2.309997625000001 6.929992875000002
6 2 -2.0 2.309997625000001 6.929992875000002 6.929992875000002
7 2 -2.0 2.309997625000001 6.929992875000002 2.309997625000001
8 2 -2.0 2.309997625000001 2.309997625000001 2.309997625000001
9 2 -2.0 6.929992875000002 2.309997625000001 2.309997625000001
10 2 -2.0 6.929992875000002 6.929992875000002 2.309997625000001
11 2 -2.0 6.929992875000002 6.929992875000002 6.929992875000002
12 2 -2.0 6.929992875000002 2.309997625000001 6.929992875000002
13 1 4.0 0.0 0.0 9.239990500000005
14 1 4.0 0.0 4.619995250000002 13.859985750000003
15 1 4.0 4.619995250000002 18.47998100000001 13.859985750000003
16 1 4.0 4.619995250000002 4.619995250000002 9.239990500000005
17 2 -2.0 2.309997625000001 2.309997625000001 16.169983375000008
18 2 -2.0 2.309997625000001 6.929992875000002 16.169983375000008
19 2 -2.0 2.309997625000001 6.929992875000002 11.549988125000004
20 2 -2.0 2.309997625000001 2.309997625000001 11.549988125000004
21 2 -2.0 6.929992875000002 2.309997625000001 11.549988125000004
22 2 -2.0 6.929992875000002 6.929992875000002 11.549988125000004
23 2 -2.0 6.929992875000002 6.929992875000002 16.169983375000008
24 2 -2.0 6.929992875000002 2.309997625000001 16.169983375000008
25 1 4.0 0.0 9.239990500000005 0.0
26 1 4.0 0.0 13.859985750000003 4.619995250000002
27 1 4.0 4.619995250000002 9.239990500000005 4.619995250000002
28 1 4.0 4.619995250000002 13.859985750000003 0.0
29 2 -2.0 2.309997625000001 11.549988125000004 6.929992875000002
30 2 -2.0 2.309997625000001 16.169983375000008 6.929992875000002
31 2 -2.0 2.309997625000001 16.169983375000008 2.309997625000001
32 2 -2.0 2.309997625000001 11.549988125000004 2.309997625000001
33 2 -2.0 6.929992875000002 11.549988125000004 2.309997625000001
34 2 -2.0 6.929992875000002 16.169983375000008 2.309997625000001
35 2 -2.0 6.929992875000002 16.169983375000008 6.929992875000002
36 2 -2.0 6.929992875000002 11.549988125000004 6.929992875000002
37 1 4.0 0.0 9.239990500000005 9.239990500000005
38 1 4.0 0.0 13.859985750000003 13.859985750000003
39 1 4.0 4.619995250000002 9.239990500000005 13.859985750000003
40 1 4.0 4.619995250000002 13.859985750000003 9.239990500000005
41 2 -2.0 2.309997625000001 11.549988125000004 16.169983375000008
42 2 -2.0 2.309997625000001 16.169983375000008 16.169983375000008
43 2 -2.0 2.309997625000001 16.169983375000008 11.549988125000004
44 2 -2.0 2.309997625000001 11.549988125000004 11.549988125000004
45 2 -2.0 6.929992875000002 11.549988125000004 11.549988125000004
46 2 -2.0 6.929992875000002 16.169983375000008 11.549988125000004
47 2 -2.0 6.929992875000002 16.169983375000008 16.169983375000008
48 2 -2.0 6.929992875000002 11.549988125000004 16.169983375000008
49 1 4.0 9.239990500000005 0.0 0.0
50 1 4.0 9.239990500000005 4.619995250000002 4.619995250000002
51 1 4.0 13.859985750000003 0.0 4.619995250000002
52 1 4.0 13.859985750000003 4.619995250000002 0.0
53 2 -2.0 11.549988125000004 2.309997625000001 6.929992875000002
54 2 -2.0 11.549988125000004 6.929992875000002 6.929992875000002
55 2 -2.0 11.549988125000004 6.929992875000002 2.309997625000001
56 2 -2.0 11.549988125000004 2.309997625000001 2.309997625000001
57 2 -2.0 16.169983375000008 2.309997625000001 2.309997625000001
58 2 -2.0 16.169983375000008 6.929992875000002 2.309997625000001
59 2 -2.0 16.169983375000008 6.929992875000002 6.929992875000002
60 2 -2.0 16.169983375000008 2.309997625000001 6.929992875000002
61 1 4.0 9.239990500000005 0.0 9.239990500000005
62 1 4.0 9.239990500000005 4.619995250000002 13.859985750000003
63 1 4.0 13.859985750000003 18.47998100000001 13.859985750000003
64 1 4.0 13.859985750000003 4.619995250000002 9.239990500000005
65 2 -2.0 11.549988125000004 2.309997625000001 16.169983375000008
66 2 -2.0 11.549988125000004 6.929992875000002 16.169983375000008
67 2 -2.0 11.549988125000004 6.929992875000002 11.549988125000004
68 2 -2.0 11.549988125000004 2.309997625000001 11.549988125000004
69 2 -2.0 16.169983375000008 2.309997625000001 11.549988125000004
70 2 -2.0 16.169983375000008 6.929992875000002 11.549988125000004
71 2 -2.0 16.169983375000008 6.929992875000002 16.169983375000008
72 2 -2.0 16.169983375000008 2.309997625000001 16.169983375000008
73 1 4.0 9.239990500000005 9.239990500000005 0.0
74 1 4.0 9.239990500000005 13.859985750000003 4.619995250000002
75 1 4.0 13.859985750000003 9.239990500000005 4.619995250000002
76 1 4.0 13.859985750000003 13.859985750000003 0.0
77 2 -2.0 11.549988125000004 11.549988125000004 6.929992875000002
78 2 -2.0 11.549988125000004 16.169983375000008 6.929992875000002
79 2 -2.0 11.549988125000004 16.169983375000008 2.309997625000001
80 2 -2.0 11.549988125000004 11.549988125000004 2.309997625000001
81 2 -2.0 16.169983375000008 11.549988125000004 2.309997625000001
82 2 -2.0 16.169983375000008 16.169983375000008 2.309997625000001
83 2 -2.0 16.169983375000008 16.169983375000008 6.929992875000002
84 2 -2.0 16.169983375000008 11.549988125000004 6.929992875000002
85 1 4.0 9.239990500000005 9.239990500000005 9.239990500000005
86 1 4.0 9.239990500000005 13.859985750000003 13.859985750000003
87 1 4.0 13.859985750000003 9.239990500000005 13.859985750000003
88 1 4.0 13.859985750000003 13.859985750000003 9.239990500000005
89 2 -2.0 11.549988125000004 11.549988125000004 16.169983375000008
90 2 -2.0 11.549988125000004 16.169983375000008 16.169983375000008
91 2 -2.0 11.549988125000004 16.169983375000008 11.549988125000004
92 2 -2.0 11.549988125000004 11.549988125000004 11.549988125000004
93 2 -2.0 16.169983375000008 11.549988125000004 11.549988125000004
94 2 -2.0 16.169983375000008 16.169983375000008 11.549988125000004
95 2 -2.0 16.169983375000008 16.169983375000008 16.169983375000008
96 2 -2.0 16.169983375000008 11.549988125000004 16.169983375000008
