 # "Ce32 O64"
  
          96  atoms
           2  atom types
 
0.0 17.49584000000001 xlo xhi
0.0 17.49584000000001 ylo yhi
0.0 17.49584000000001 zlo zhi
 
Masses
 
            1   140.11600000            # Ce
            2   15.99900000             # O
 
Atoms
 
1 1 4.0 0.0 0.0 0.0
2 1 4.0 0.0 4.373960000000002 4.373960000000002
3 1 4.0 4.373960000000002 0.0 4.373960000000002
4 1 4.0 4.373960000000002 4.373960000000002 0.0
5 2 -2.0 2.186980000000001 2.186980000000001 6.560940000000001
6 2 -2.0 2.186980000000001 6.560940000000001 6.560940000000001
7 2 -2.0 2.186980000000001 6.560940000000001 2.186980000000001
8 2 -2.0 2.186980000000001 2.186980000000001 2.186980000000001
9 2 -2.0 6.560940000000001 2.186980000000001 2.186980000000001
10 2 -2.0 6.560940000000001 6.560940000000001 2.186980000000001
11 2 -2.0 6.560940000000001 6.560940000000001 6.560940000000001
12 2 -2.0 6.560940000000001 2.186980000000001 6.560940000000001
13 1 4.0 0.0 0.0 8.747920000000004
14 1 4.0 0.0 4.373960000000002 13.121880000000003
15 1 4.0 4.373960000000002 17.49584000000001 13.121880000000003
16 1 4.0 4.373960000000002 4.373960000000002 8.747920000000004
17 2 -2.0 2.186980000000001 2.186980000000001 15.308860000000006
18 2 -2.0 2.186980000000001 6.560940000000001 15.308860000000006
19 2 -2.0 2.186980000000001 6.560940000000001 10.934900000000004
20 2 -2.0 2.186980000000001 2.186980000000001 10.934900000000004
21 2 -2.0 6.560940000000001 2.186980000000001 10.934900000000004
22 2 -2.0 6.560940000000001 6.560940000000001 10.934900000000004
23 2 -2.0 6.560940000000001 6.560940000000001 15.308860000000006
24 2 -2.0 6.560940000000001 2.186980000000001 15.308860000000006
25 1 4.0 0.0 8.747920000000004 0.0
26 1 4.0 0.0 13.121880000000003 4.373960000000002
27 1 4.0 4.373960000000002 8.747920000000004 4.373960000000002
28 1 4.0 4.373960000000002 13.121880000000003 0.0
29 2 -2.0 2.186980000000001 10.934900000000004 6.560940000000001
30 2 -2.0 2.186980000000001 15.308860000000006 6.560940000000001
31 2 -2.0 2.186980000000001 15.308860000000006 2.186980000000001
32 2 -2.0 2.186980000000001 10.934900000000004 2.186980000000001
33 2 -2.0 6.560940000000001 10.934900000000004 2.186980000000001
34 2 -2.0 6.560940000000001 15.308860000000006 2.186980000000001
35 2 -2.0 6.560940000000001 15.308860000000006 6.560940000000001
36 2 -2.0 6.560940000000001 10.934900000000004 6.560940000000001
37 1 4.0 0.0 8.747920000000004 8.747920000000004
38 1 4.0 0.0 13.121880000000003 13.121880000000003
39 1 4.0 4.373960000000002 8.747920000000004 13.121880000000003
40 1 4.0 4.373960000000002 13.121880000000003 8.747920000000004
41 2 -2.0 2.186980000000001 10.934900000000004 15.308860000000006
42 2 -2.0 2.186980000000001 15.308860000000006 15.308860000000006
43 2 -2.0 2.186980000000001 15.308860000000006 10.934900000000004
44 2 -2.0 2.186980000000001 10.934900000000004 10.934900000000004
45 2 -2.0 6.560940000000001 10.934900000000004 10.934900000000004
46 2 -2.0 6.560940000000001 15.308860000000006 10.934900000000004
47 2 -2.0 6.560940000000001 15.308860000000006 15.308860000000006
48 2 -2.0 6.560940000000001 10.934900000000004 15.308860000000006
49 1 4.0 8.747920000000004 0.0 0.0
50 1 4.0 8.747920000000004 4.373960000000002 4.373960000000002
51 1 4.0 13.121880000000003 0.0 4.373960000000002
52 1 4.0 13.121880000000003 4.373960000000002 0.0
53 2 -2.0 10.934900000000004 2.186980000000001 6.560940000000001
54 2 -2.0 10.934900000000004 6.560940000000001 6.560940000000001
55 2 -2.0 10.934900000000004 6.560940000000001 2.186980000000001
56 2 -2.0 10.934900000000004 2.186980000000001 2.186980000000001
57 2 -2.0 15.308860000000006 2.186980000000001 2.186980000000001
58 2 -2.0 15.308860000000006 6.560940000000001 2.186980000000001
59 2 -2.0 15.308860000000006 6.560940000000001 6.560940000000001
60 2 -2.0 15.308860000000006 2.186980000000001 6.560940000000001
61 1 4.0 8.747920000000004 0.0 8.747920000000004
62 1 4.0 8.747920000000004 4.373960000000002 13.121880000000003
63 1 4.0 13.121880000000003 17.49584000000001 13.121880000000003
64 1 4.0 13.121880000000003 4.373960000000002 8.747920000000004
65 2 -2.0 10.934900000000004 2.186980000000001 15.308860000000006
66 2 -2.0 10.934900000000004 6.560940000000001 15.308860000000006
67 2 -2.0 10.934900000000004 6.560940000000001 10.934900000000004
68 2 -2.0 10.934900000000004 2.186980000000001 10.934900000000004
69 2 -2.0 15.308860000000006 2.186980000000001 10.934900000000004
70 2 -2.0 15.308860000000006 6.560940000000001 10.934900000000004
71 2 -2.0 15.308860000000006 6.560940000000001 15.308860000000006
72 2 -2.0 15.308860000000006 2.186980000000001 15.308860000000006
73 1 4.0 8.747920000000004 8.747920000000004 0.0
74 1 4.0 8.747920000000004 13.121880000000003 4.373960000000002
75 1 4.0 13.121880000000003 8.747920000000004 4.373960000000002
76 1 4.0 13.121880000000003 13.121880000000003 0.0
77 2 -2.0 10.934900000000004 10.934900000000004 6.560940000000001
78 2 -2.0 10.934900000000004 15.308860000000006 6.560940000000001
79 2 -2.0 10.934900000000004 15.308860000000006 2.186980000000001
80 2 -2.0 10.934900000000004 10.934900000000004 2.186980000000001
81 2 -2.0 15.308860000000006 10.934900000000004 2.186980000000001
82 2 -2.0 15.308860000000006 15.308860000000006 2.186980000000001
83 2 -2.0 15.308860000000006 15.308860000000006 6.560940000000001
84 2 -2.0 15.308860000000006 10.934900000000004 6.560940000000001
85 1 4.0 8.747920000000004 8.747920000000004 8.747920000000004
86 1 4.0 8.747920000000004 13.121880000000003 13.121880000000003
87 1 4.0 13.121880000000003 8.747920000000004 13.121880000000003
88 1 4.0 13.121880000000003 13.121880000000003 8.747920000000004
89 2 -2.0 10.934900000000004 10.934900000000004 15.308860000000006
90 2 -2.0 10.934900000000004 15.308860000000006 15.308860000000006
91 2 -2.0 10.934900000000004 15.308860000000006 10.934900000000004
92 2 -2.0 10.934900000000004 10.934900000000004 10.934900000000004
93 2 -2.0 15.308860000000006 10.934900000000004 10.934900000000004
94 2 -2.0 15.308860000000006 15.308860000000006 10.934900000000004
95 2 -2.0 15.308860000000006 15.308860000000006 15.308860000000006
96 2 -2.0 15.308860000000006 10.934900000000004 15.308860000000006
