 # "Ce32 O64"
  
          96  atoms
           2  atom types
 
0.0 11.481645000000002 xlo xhi
0.0 11.481645000000002 ylo yhi
0.0 11.481645000000002 zlo zhi
 
Masses
 
            1   140.11600000            # Ce
            2   15.99900000             # O
 
Atoms
 
1 1 4.0 0.0 0.0 0.0
2 1 4.0 0.0 2.8704112500000005 2.8704112500000005
3 1 4.0 2.8704112500000005 0.0 2.8704112500000005
4 1 4.0 2.8704112500000005 2.8704112500000005 0.0
5 2 -2.0 1.4352056250000003 1.4352056250000003 4.305616875
6 2 -2.0 1.4352056250000003 4.305616875 4.305616875
7 2 -2.0 1.4352056250000003 4.305616875 1.4352056250000003
8 2 -2.0 1.4352056250000003 1.4352056250000003 1.4352056250000003
9 2 -2.0 4.305616875 1.4352056250000003 1.4352056250000003
10 2 -2.0 4.305616875 4.305616875 1.4352056250000003
11 2 -2.0 4.305616875 4.305616875 4.305616875
12 2 -2.0 4.305616875 1.4352056250000003 4.305616875
13 1 4.0 0.0 0.0 5.740822500000001
14 1 4.0 0.0 2.8704112500000005 8.61123375
15 1 4.0 2.8704112500000005 11.481645000000002 8.61123375
16 1 4.0 2.8704112500000005 2.8704112500000005 5.740822500000001
17 2 -2.0 1.4352056250000003 1.4352056250000003 10.046439375000002
18 2 -2.0 1.4352056250000003 4.305616875 10.046439375000002
19 2 -2.0 1.4352056250000003 4.305616875 7.176028125
20 2 -2.0 1.4352056250000003 1.4352056250000003 7.176028125
21 2 -2.0 4.305616875 1.4352056250000003 7.176028125
22 2 -2.0 4.305616875 4.305616875 7.176028125
23 2 -2.0 4.305616875 4.305616875 10.046439375000002
24 2 -2.0 4.305616875 1.4352056250000003 10.046439375000002
25 1 4.0 0.0 5.740822500000001 0.0
26 1 4.0 0.0 8.61123375 2.8704112500000005
27 1 4.0 2.8704112500000005 5.740822500000001 2.8704112500000005
28 1 4.0 2.8704112500000005 8.61123375 0.0
29 2 -2.0 1.4352056250000003 7.176028125 4.305616875
30 2 -2.0 1.4352056250000003 10.046439375000002 4.305616875
31 2 -2.0 1.4352056250000003 10.046439375000002 1.4352056250000003
32 2 -2.0 1.4352056250000003 7.176028125 1.4352056250000003
33 2 -2.0 4.305616875 7.176028125 1.4352056250000003
34 2 -2.0 4.305616875 10.046439375000002 1.4352056250000003
35 2 -2.0 4.305616875 10.046439375000002 4.305616875
36 2 -2.0 4.305616875 7.176028125 4.305616875
37 1 4.0 0.0 5.740822500000001 5.740822500000001
38 1 4.0 0.0 8.61123375 8.61123375
39 1 4.0 2.8704112500000005 5.740822500000001 8.61123375
40 1 4.0 2.8704112500000005 8.61123375 5.740822500000001
41 2 -2.0 1.4352056250000003 7.176028125 10.046439375000002
42 2 -2.0 1.4352056250000003 10.046439375000002 10.046439375000002
43 2 -2.0 1.4352056250000003 10.046439375000002 7.176028125
44 2 -2.0 1.4352056250000003 7.176028125 7.176028125
45 2 -2.0 4.305616875 7.176028125 7.176028125
46 2 -2.0 4.305616875 10.046439375000002 7.176028125
47 2 -2.0 4.305616875 10.046439375000002 10.046439375000002
48 2 -2.0 4.305616875 7.176028125 10.046439375000002
49 1 4.0 5.740822500000001 0.0 0.0
50 1 4.0 5.740822500000001 2.8704112500000005 2.8704112500000005
51 1 4.0 8.61123375 0.0 2.8704112500000005
52 1 4.0 8.61123375 2.8704112500000005 0.0
53 2 -2.0 7.176028125 1.4352056250000003 4.305616875
54 2 -2.0 7.176028125 4.305616875 4.305616875
55 2 -2.0 7.176028125 4.305616875 1.4352056250000003
56 2 -2.0 7.176028125 1.4352056250000003 1.4352056250000003
57 2 -2.0 10.046439375000002 1.4352056250000003 1.4352056250000003
58 2 -2.0 10.046439375000002 4.305616875 1.4352056250000003
59 2 -2.0 10.046439375000002 4.305616875 4.305616875
60 2 -2.0 10.046439375000002 1.4352056250000003 4.305616875
61 1 4.0 5.740822500000001 0.0 5.740822500000001
62 1 4.0 5.740822500000001 2.8704112500000005 8.61123375
63 1 4.0 8.61123375 11.481645000000002 8.61123375
64 1 4.0 8.61123375 2.8704112500000005 5.740822500000001
65 2 -2.0 7.176028125 1.4352056250000003 10.046439375000002
66 2 -2.0 7.176028125 4.305616875 10.046439375000002
67 2 -2.0 7.176028125 4.305616875 7.176028125
68 2 -2.0 7.176028125 1.4352056250000003 7.176028125
69 2 -2.0 10.046439375000002 1.4352056250000003 7.176028125
70 2 -2.0 10.046439375000002 4.305616875 7.176028125
71 2 -2.0 10.046439375000002 4.305616875 10.046439375000002
72 2 -2.0 10.046439375000002 1.4352056250000003 10.046439375000002
73 1 4.0 5.740822500000001 5.740822500000001 0.0
74 1 4.0 5.740822500000001 8.61123375 2.8704112500000005
75 1 4.0 8.61123375 5.740822500000001 2.8704112500000005
76 1 4.0 8.61123375 8.61123375 0.0
77 2 -2.0 7.176028125 7.176028125 4.305616875
78 2 -2.0 7.176028125 10.046439375000002 4.305616875
79 2 -2.0 7.176028125 10.046439375000002 1.4352056250000003
80 2 -2.0 7.176028125 7.176028125 1.4352056250000003
81 2 -2.0 10.046439375000002 7.176028125 1.4352056250000003
82 2 -2.0 10.046439375000002 10.046439375000002 1.4352056250000003
83 2 -2.0 10.046439375000002 10.046439375000002 4.305616875
84 2 -2.0 10.046439375000002 7.176028125 4.305616875
85 1 4.0 5.740822500000001 5.740822500000001 5.740822500000001
86 1 4.0 5.740822500000001 8.61123375 8.61123375
87 1 4.0 8.61123375 5.740822500000001 8.61123375
88 1 4.0 8.61123375 8.61123375 5.740822500000001
89 2 -2.0 7.176028125 7.176028125 10.046439375000002
90 2 -2.0 7.176028125 10.046439375000002 10.046439375000002
91 2 -2.0 7.176028125 10.046439375000002 7.176028125
92 2 -2.0 7.176028125 7.176028125 7.176028125
93 2 -2.0 10.046439375000002 7.176028125 7.176028125
94 2 -2.0 10.046439375000002 10.046439375000002 7.176028125
95 2 -2.0 10.046439375000002 10.046439375000002 10.046439375000002
96 2 -2.0 10.046439375000002 7.176028125 10.046439375000002
