 # "Ce32 O64"
  
          96  atoms
           2  atom types
 
0.0 14.652766000000005 xlo xhi
0.0 14.652766000000005 ylo yhi
0.0 14.652766000000005 zlo zhi
 
Masses
 
            1   140.11600000            # Ce
            2   15.99900000             # O
 
Atoms
 
1 1 4.0 0.0 0.0 0.0
2 1 4.0 0.0 3.6631915000000013 3.6631915000000013
3 1 4.0 3.6631915000000013 0.0 3.6631915000000013
4 1 4.0 3.6631915000000013 3.6631915000000013 0.0
5 2 -2.0 1.8315957500000006 1.8315957500000006 5.494787250000001
6 2 -2.0 1.8315957500000006 5.494787250000001 5.494787250000001
7 2 -2.0 1.8315957500000006 5.494787250000001 1.8315957500000006
8 2 -2.0 1.8315957500000006 1.8315957500000006 1.8315957500000006
9 2 -2.0 5.494787250000001 1.8315957500000006 1.8315957500000006
10 2 -2.0 5.494787250000001 5.494787250000001 1.8315957500000006
11 2 -2.0 5.494787250000001 5.494787250000001 5.494787250000001
12 2 -2.0 5.494787250000001 1.8315957500000006 5.494787250000001
13 1 4.0 0.0 0.0 7.3263830000000025
14 1 4.0 0.0 3.6631915000000013 10.989574500000002
15 1 4.0 3.6631915000000013 14.652766000000005 10.989574500000002
16 1 4.0 3.6631915000000013 3.6631915000000013 7.3263830000000025
17 2 -2.0 1.8315957500000006 1.8315957500000006 12.821170250000003
18 2 -2.0 1.8315957500000006 5.494787250000001 12.821170250000003
19 2 -2.0 1.8315957500000006 5.494787250000001 9.157978750000002
20 2 -2.0 1.8315957500000006 1.8315957500000006 9.157978750000002
21 2 -2.0 5.494787250000001 1.8315957500000006 9.157978750000002
22 2 -2.0 5.494787250000001 5.494787250000001 9.157978750000002
23 2 -2.0 5.494787250000001 5.494787250000001 12.821170250000003
24 2 -2.0 5.494787250000001 1.8315957500000006 12.821170250000003
25 1 4.0 0.0 7.3263830000000025 0.0
26 1 4.0 0.0 10.989574500000002 3.6631915000000013
27 1 4.0 3.6631915000000013 7.3263830000000025 3.6631915000000013
28 1 4.0 3.6631915000000013 10.989574500000002 0.0
29 2 -2.0 1.8315957500000006 9.157978750000002 5.494787250000001
30 2 -2.0 1.8315957500000006 12.821170250000003 5.494787250000001
31 2 -2.0 1.8315957500000006 12.821170250000003 1.8315957500000006
32 2 -2.0 1.8315957500000006 9.157978750000002 1.8315957500000006
33 2 -2.0 5.494787250000001 9.157978750000002 1.8315957500000006
34 2 -2.0 5.494787250000001 12.821170250000003 1.8315957500000006
35 2 -2.0 5.494787250000001 12.821170250000003 5.494787250000001
36 2 -2.0 5.494787250000001 9.157978750000002 5.494787250000001
37 1 4.0 0.0 7.3263830000000025 7.3263830000000025
38 1 4.0 0.0 10.989574500000002 10.989574500000002
39 1 4.0 3.6631915000000013 7.3263830000000025 10.989574500000002
40 1 4.0 3.6631915000000013 10.989574500000002 7.3263830000000025
41 2 -2.0 1.8315957500000006 9.157978750000002 12.821170250000003
42 2 -2.0 1.8315957500000006 12.821170250000003 12.821170250000003
43 2 -2.0 1.8315957500000006 12.821170250000003 9.157978750000002
44 2 -2.0 1.8315957500000006 9.157978750000002 9.157978750000002
45 2 -2.0 5.494787250000001 9.157978750000002 9.157978750000002
46 2 -2.0 5.494787250000001 12.821170250000003 9.157978750000002
47 2 -2.0 5.494787250000001 12.821170250000003 12.821170250000003
48 2 -2.0 5.494787250000001 9.157978750000002 12.821170250000003
49 1 4.0 7.3263830000000025 0.0 0.0
50 1 4.0 7.3263830000000025 3.6631915000000013 3.6631915000000013
51 1 4.0 10.989574500000002 0.0 3.6631915000000013
52 1 4.0 10.989574500000002 3.6631915000000013 0.0
53 2 -2.0 9.157978750000002 1.8315957500000006 5.494787250000001
54 2 -2.0 9.157978750000002 5.494787250000001 5.494787250000001
55 2 -2.0 9.157978750000002 5.494787250000001 1.8315957500000006
56 2 -2.0 9.157978750000002 1.8315957500000006 1.8315957500000006
57 2 -2.0 12.821170250000003 1.8315957500000006 1.8315957500000006
58 2 -2.0 12.821170250000003 5.494787250000001 1.8315957500000006
59 2 -2.0 12.821170250000003 5.494787250000001 5.494787250000001
60 2 -2.0 12.821170250000003 1.8315957500000006 5.494787250000001
61 1 4.0 7.3263830000000025 0.0 7.3263830000000025
62 1 4.0 7.3263830000000025 3.6631915000000013 10.989574500000002
63 1 4.0 10.989574500000002 14.652766000000005 10.989574500000002
64 1 4.0 10.989574500000002 3.6631915000000013 7.3263830000000025
65 2 -2.0 9.157978750000002 1.8315957500000006 12.821170250000003
66 2 -2.0 9.157978750000002 5.494787250000001 12.821170250000003
67 2 -2.0 9.157978750000002 5.494787250000001 9.157978750000002
68 2 -2.0 9.157978750000002 1.8315957500000006 9.157978750000002
69 2 -2.0 12.821170250000003 1.8315957500000006 9.157978750000002
70 2 -2.0 12.821170250000003 5.494787250000001 9.157978750000002
71 2 -2.0 12.821170250000003 5.494787250000001 12.821170250000003
72 2 -2.0 12.821170250000003 1.8315957500000006 12.821170250000003
73 1 4.0 7.3263830000000025 7.3263830000000025 0.0
74 1 4.0 7.3263830000000025 10.989574500000002 3.6631915000000013
75 1 4.0 10.989574500000002 7.3263830000000025 3.6631915000000013
76 1 4.0 10.989574500000002 10.989574500000002 0.0
77 2 -2.0 9.157978750000002 9.157978750000002 5.494787250000001
78 2 -2.0 9.157978750000002 12.821170250000003 5.494787250000001
79 2 -2.0 9.157978750000002 12.821170250000003 1.8315957500000006
80 2 -2.0 9.157978750000002 9.157978750000002 1.8315957500000006
81 2 -2.0 12.821170250000003 9.157978750000002 1.8315957500000006
82 2 -2.0 12.821170250000003 12.821170250000003 1.8315957500000006
83 2 -2.0 12.821170250000003 12.821170250000003 5.494787250000001
84 2 -2.0 12.821170250000003 9.157978750000002 5.494787250000001
85 1 4.0 7.3263830000000025 7.3263830000000025 7.3263830000000025
86 1 4.0 7.3263830000000025 10.989574500000002 10.989574500000002
87 1 4.0 10.989574500000002 7.3263830000000025 10.989574500000002
88 1 4.0 10.989574500000002 10.989574500000002 7.3263830000000025
89 2 -2.0 9.157978750000002 9.157978750000002 12.821170250000003
90 2 -2.0 9.157978750000002 12.821170250000003 12.821170250000003
91 2 -2.0 9.157978750000002 12.821170250000003 9.157978750000002
92 2 -2.0 9.157978750000002 9.157978750000002 9.157978750000002
93 2 -2.0 12.821170250000003 9.157978750000002 9.157978750000002
94 2 -2.0 12.821170250000003 12.821170250000003 9.157978750000002
95 2 -2.0 12.821170250000003 12.821170250000003 12.821170250000003
96 2 -2.0 12.821170250000003 9.157978750000002 12.821170250000003
