 # "Ce32 O64"
  
          96  atoms
           2  atom types
 
0.0 16.621048000000005 xlo xhi
0.0 16.621048000000005 ylo yhi
0.0 16.621048000000005 zlo zhi
 
Masses
 
            1   140.11600000            # Ce
            2   15.99900000             # O
 
Atoms
 
1 1 4.0 0.0 0.0 0.0
2 1 4.0 0.0 4.155262000000001 4.155262000000001
3 1 4.0 4.155262000000001 0.0 4.155262000000001
4 1 4.0 4.155262000000001 4.155262000000001 0.0
5 2 -2.0 2.0776310000000007 2.0776310000000007 6.232893000000002
6 2 -2.0 2.0776310000000007 6.232893000000002 6.232893000000002
7 2 -2.0 2.0776310000000007 6.232893000000002 2.0776310000000007
8 2 -2.0 2.0776310000000007 2.0776310000000007 2.0776310000000007
9 2 -2.0 6.232893000000002 2.0776310000000007 2.0776310000000007
10 2 -2.0 6.232893000000002 6.232893000000002 2.0776310000000007
11 2 -2.0 6.232893000000002 6.232893000000002 6.232893000000002
12 2 -2.0 6.232893000000002 2.0776310000000007 6.232893000000002
13 1 4.0 0.0 0.0 8.310524000000003
14 1 4.0 0.0 4.155262000000001 12.465786000000003
15 1 4.0 4.155262000000001 16.621048000000005 12.465786000000003
16 1 4.0 4.155262000000001 4.155262000000001 8.310524000000003
17 2 -2.0 2.0776310000000007 2.0776310000000007 14.543417000000005
18 2 -2.0 2.0776310000000007 6.232893000000002 14.543417000000005
19 2 -2.0 2.0776310000000007 6.232893000000002 10.388155000000003
20 2 -2.0 2.0776310000000007 2.0776310000000007 10.388155000000003
21 2 -2.0 6.232893000000002 2.0776310000000007 10.388155000000003
22 2 -2.0 6.232893000000002 6.232893000000002 10.388155000000003
23 2 -2.0 6.232893000000002 6.232893000000002 14.543417000000005
24 2 -2.0 6.232893000000002 2.0776310000000007 14.543417000000005
25 1 4.0 0.0 8.310524000000003 0.0
26 1 4.0 0.0 12.465786000000003 4.155262000000001
27 1 4.0 4.155262000000001 8.310524000000003 4.155262000000001
28 1 4.0 4.155262000000001 12.465786000000003 0.0
29 2 -2.0 2.0776310000000007 10.388155000000003 6.232893000000002
30 2 -2.0 2.0776310000000007 14.543417000000005 6.232893000000002
31 2 -2.0 2.0776310000000007 14.543417000000005 2.0776310000000007
32 2 -2.0 2.0776310000000007 10.388155000000003 2.0776310000000007
33 2 -2.0 6.232893000000002 10.388155000000003 2.0776310000000007
34 2 -2.0 6.232893000000002 14.543417000000005 2.0776310000000007
35 2 -2.0 6.232893000000002 14.543417000000005 6.232893000000002
36 2 -2.0 6.232893000000002 10.388155000000003 6.232893000000002
37 1 4.0 0.0 8.310524000000003 8.310524000000003
38 1 4.0 0.0 12.465786000000003 12.465786000000003
39 1 4.0 4.155262000000001 8.310524000000003 12.465786000000003
40 1 4.0 4.155262000000001 12.465786000000003 8.310524000000003
41 2 -2.0 2.0776310000000007 10.388155000000003 14.543417000000005
42 2 -2.0 2.0776310000000007 14.543417000000005 14.543417000000005
43 2 -2.0 2.0776310000000007 14.543417000000005 10.388155000000003
44 2 -2.0 2.0776310000000007 10.388155000000003 10.388155000000003
45 2 -2.0 6.232893000000002 10.388155000000003 10.388155000000003
46 2 -2.0 6.232893000000002 14.543417000000005 10.388155000000003
47 2 -2.0 6.232893000000002 14.543417000000005 14.543417000000005
48 2 -2.0 6.232893000000002 10.388155000000003 14.543417000000005
49 1 4.0 8.310524000000003 0.0 0.0
50 1 4.0 8.310524000000003 4.155262000000001 4.155262000000001
51 1 4.0 12.465786000000003 0.0 4.155262000000001
52 1 4.0 12.465786000000003 4.155262000000001 0.0
53 2 -2.0 10.388155000000003 2.0776310000000007 6.232893000000002
54 2 -2.0 10.388155000000003 6.232893000000002 6.232893000000002
55 2 -2.0 10.388155000000003 6.232893000000002 2.0776310000000007
56 2 -2.0 10.388155000000003 2.0776310000000007 2.0776310000000007
57 2 -2.0 14.543417000000005 2.0776310000000007 2.0776310000000007
58 2 -2.0 14.543417000000005 6.232893000000002 2.0776310000000007
59 2 -2.0 14.543417000000005 6.232893000000002 6.232893000000002
60 2 -2.0 14.543417000000005 2.0776310000000007 6.232893000000002
61 1 4.0 8.310524000000003 0.0 8.310524000000003
62 1 4.0 8.310524000000003 4.155262000000001 12.465786000000003
63 1 4.0 12.465786000000003 16.621048000000005 12.465786000000003
64 1 4.0 12.465786000000003 4.155262000000001 8.310524000000003
65 2 -2.0 10.388155000000003 2.0776310000000007 14.543417000000005
66 2 -2.0 10.388155000000003 6.232893000000002 14.543417000000005
67 2 -2.0 10.388155000000003 6.232893000000002 10.388155000000003
68 2 -2.0 10.388155000000003 2.0776310000000007 10.388155000000003
69 2 -2.0 14.543417000000005 2.0776310000000007 10.388155000000003
70 2 -2.0 14.543417000000005 6.232893000000002 10.388155000000003
71 2 -2.0 14.543417000000005 6.232893000000002 14.543417000000005
72 2 -2.0 14.543417000000005 2.0776310000000007 14.543417000000005
73 1 4.0 8.310524000000003 8.310524000000003 0.0
74 1 4.0 8.310524000000003 12.465786000000003 4.155262000000001
75 1 4.0 12.465786000000003 8.310524000000003 4.155262000000001
76 1 4.0 12.465786000000003 12.465786000000003 0.0
77 2 -2.0 10.388155000000003 10.388155000000003 6.232893000000002
78 2 -2.0 10.388155000000003 14.543417000000005 6.232893000000002
79 2 -2.0 10.388155000000003 14.543417000000005 2.0776310000000007
80 2 -2.0 10.388155000000003 10.388155000000003 2.0776310000000007
81 2 -2.0 14.543417000000005 10.388155000000003 2.0776310000000007
82 2 -2.0 14.543417000000005 14.543417000000005 2.0776310000000007
83 2 -2.0 14.543417000000005 14.543417000000005 6.232893000000002
84 2 -2.0 14.543417000000005 10.388155000000003 6.232893000000002
85 1 4.0 8.310524000000003 8.310524000000003 8.310524000000003
86 1 4.0 8.310524000000003 12.465786000000003 12.465786000000003
87 1 4.0 12.465786000000003 8.310524000000003 12.465786000000003
88 1 4.0 12.465786000000003 12.465786000000003 8.310524000000003
89 2 -2.0 10.388155000000003 10.388155000000003 14.543417000000005
90 2 -2.0 10.388155000000003 14.543417000000005 14.543417000000005
91 2 -2.0 10.388155000000003 14.543417000000005 10.388155000000003
92 2 -2.0 10.388155000000003 10.388155000000003 10.388155000000003
93 2 -2.0 14.543417000000005 10.388155000000003 10.388155000000003
94 2 -2.0 14.543417000000005 14.543417000000005 10.388155000000003
95 2 -2.0 14.543417000000005 14.543417000000005 14.543417000000005
96 2 -2.0 14.543417000000005 10.388155000000003 14.543417000000005
