 # "Ce32 O64"
  
          96  atoms
           2  atom types
 
0.0 10.388155 xlo xhi
0.0 10.388155 ylo yhi
0.0 10.388155 zlo zhi
 
Masses
 
            1   140.11600000            # Ce
            2   15.99900000             # O
 
Atoms
 
1 1 4.0 0.0 0.0 0.0
2 1 4.0 0.0 2.59703875 2.59703875
3 1 4.0 2.59703875 0.0 2.59703875
4 1 4.0 2.59703875 2.59703875 0.0
5 2 -2.0 1.298519375 1.298519375 3.8955581249999995
6 2 -2.0 1.298519375 3.8955581249999995 3.8955581249999995
7 2 -2.0 1.298519375 3.8955581249999995 1.298519375
8 2 -2.0 1.298519375 1.298519375 1.298519375
9 2 -2.0 3.8955581249999995 1.298519375 1.298519375
10 2 -2.0 3.8955581249999995 3.8955581249999995 1.298519375
11 2 -2.0 3.8955581249999995 3.8955581249999995 3.8955581249999995
12 2 -2.0 3.8955581249999995 1.298519375 3.8955581249999995
13 1 4.0 0.0 0.0 5.1940775
14 1 4.0 0.0 2.59703875 7.791116249999999
15 1 4.0 2.59703875 10.388155 7.791116249999999
16 1 4.0 2.59703875 2.59703875 5.1940775
17 2 -2.0 1.298519375 1.298519375 9.089635625
18 2 -2.0 1.298519375 3.8955581249999995 9.089635625
19 2 -2.0 1.298519375 3.8955581249999995 6.492596875
20 2 -2.0 1.298519375 1.298519375 6.492596875
21 2 -2.0 3.8955581249999995 1.298519375 6.492596875
22 2 -2.0 3.8955581249999995 3.8955581249999995 6.492596875
23 2 -2.0 3.8955581249999995 3.8955581249999995 9.089635625
24 2 -2.0 3.8955581249999995 1.298519375 9.089635625
25 1 4.0 0.0 5.1940775 0.0
26 1 4.0 0.0 7.791116249999999 2.59703875
27 1 4.0 2.59703875 5.1940775 2.59703875
28 1 4.0 2.59703875 7.791116249999999 0.0
29 2 -2.0 1.298519375 6.492596875 3.8955581249999995
30 2 -2.0 1.298519375 9.089635625 3.8955581249999995
31 2 -2.0 1.298519375 9.089635625 1.298519375
32 2 -2.0 1.298519375 6.492596875 1.298519375
33 2 -2.0 3.8955581249999995 6.492596875 1.298519375
34 2 -2.0 3.8955581249999995 9.089635625 1.298519375
35 2 -2.0 3.8955581249999995 9.089635625 3.8955581249999995
36 2 -2.0 3.8955581249999995 6.492596875 3.8955581249999995
37 1 4.0 0.0 5.1940775 5.1940775
38 1 4.0 0.0 7.791116249999999 7.791116249999999
39 1 4.0 2.59703875 5.1940775 7.791116249999999
40 1 4.0 2.59703875 7.791116249999999 5.1940775
41 2 -2.0 1.298519375 6.492596875 9.089635625
42 2 -2.0 1.298519375 9.089635625 9.089635625
43 2 -2.0 1.298519375 9.089635625 6.492596875
44 2 -2.0 1.298519375 6.492596875 6.492596875
45 2 -2.0 3.8955581249999995 6.492596875 6.492596875
46 2 -2.0 3.8955581249999995 9.089635625 6.492596875
47 2 -2.0 3.8955581249999995 9.089635625 9.089635625
48 2 -2.0 3.8955581249999995 6.492596875 9.089635625
49 1 4.0 5.1940775 0.0 0.0
50 1 4.0 5.1940775 2.59703875 2.59703875
51 1 4.0 7.791116249999999 0.0 2.59703875
52 1 4.0 7.791116249999999 2.59703875 0.0
53 2 -2.0 6.492596875 1.298519375 3.8955581249999995
54 2 -2.0 6.492596875 3.8955581249999995 3.8955581249999995
55 2 -2.0 6.492596875 3.8955581249999995 1.298519375
56 2 -2.0 6.492596875 1.298519375 1.298519375
57 2 -2.0 9.089635625 1.298519375 1.298519375
58 2 -2.0 9.089635625 3.8955581249999995 1.298519375
59 2 -2.0 9.089635625 3.8955581249999995 3.8955581249999995
60 2 -2.0 9.089635625 1.298519375 3.8955581249999995
61 1 4.0 5.1940775 0.0 5.1940775
62 1 4.0 5.1940775 2.59703875 7.791116249999999
63 1 4.0 7.791116249999999 10.388155 7.791116249999999
64 1 4.0 7.791116249999999 2.59703875 5.1940775
65 2 -2.0 6.492596875 1.298519375 9.089635625
66 2 -2.0 6.492596875 3.8955581249999995 9.089635625
67 2 -2.0 6.492596875 3.8955581249999995 6.492596875
68 2 -2.0 6.492596875 1.298519375 6.492596875
69 2 -2.0 9.089635625 1.298519375 6.492596875
70 2 -2.0 9.089635625 3.8955581249999995 6.492596875
71 2 -2.0 9.089635625 3.8955581249999995 9.089635625
72 2 -2.0 9.089635625 1.298519375 9.089635625
73 1 4.0 5.1940775 5.1940775 0.0
74 1 4.0 5.1940775 7.791116249999999 2.59703875
75 1 4.0 7.791116249999999 5.1940775 2.59703875
76 1 4.0 7.791116249999999 7.791116249999999 0.0
77 2 -2.0 6.492596875 6.492596875 3.8955581249999995
78 2 -2.0 6.492596875 9.089635625 3.8955581249999995
79 2 -2.0 6.492596875 9.089635625 1.298519375
80 2 -2.0 6.492596875 6.492596875 1.298519375
81 2 -2.0 9.089635625 6.492596875 1.298519375
82 2 -2.0 9.089635625 9.089635625 1.298519375
83 2 -2.0 9.089635625 9.089635625 3.8955581249999995
84 2 -2.0 9.089635625 6.492596875 3.8955581249999995
85 1 4.0 5.1940775 5.1940775 5.1940775
86 1 4.0 5.1940775 7.791116249999999 7.791116249999999
87 1 4.0 7.791116249999999 5.1940775 7.791116249999999
88 1 4.0 7.791116249999999 7.791116249999999 5.1940775
89 2 -2.0 6.492596875 6.492596875 9.089635625
90 2 -2.0 6.492596875 9.089635625 9.089635625
91 2 -2.0 6.492596875 9.089635625 6.492596875
92 2 -2.0 6.492596875 6.492596875 6.492596875
93 2 -2.0 9.089635625 6.492596875 6.492596875
94 2 -2.0 9.089635625 9.089635625 6.492596875
95 2 -2.0 9.089635625 9.089635625 9.089635625
96 2 -2.0 9.089635625 6.492596875 9.089635625
