 # "Ce32 O64"
  
          96  atoms
           2  atom types
 
0.0 14.871464000000005 xlo xhi
0.0 14.871464000000005 ylo yhi
0.0 14.871464000000005 zlo zhi
 
Masses
 
            1   140.11600000            # Ce
            2   15.99900000             # O
 
Atoms
 
1 1 4.0 0.0 0.0 0.0
2 1 4.0 0.0 3.7178660000000012 3.7178660000000012
3 1 4.0 3.7178660000000012 0.0 3.7178660000000012
4 1 4.0 3.7178660000000012 3.7178660000000012 0.0
5 2 -2.0 1.8589330000000006 1.8589330000000006 5.576799000000001
6 2 -2.0 1.8589330000000006 5.576799000000001 5.576799000000001
7 2 -2.0 1.8589330000000006 5.576799000000001 1.8589330000000006
8 2 -2.0 1.8589330000000006 1.8589330000000006 1.8589330000000006
9 2 -2.0 5.576799000000001 1.8589330000000006 1.8589330000000006
10 2 -2.0 5.576799000000001 5.576799000000001 1.8589330000000006
11 2 -2.0 5.576799000000001 5.576799000000001 5.576799000000001
12 2 -2.0 5.576799000000001 1.8589330000000006 5.576799000000001
13 1 4.0 0.0 0.0 7.4357320000000025
14 1 4.0 0.0 3.7178660000000012 11.153598000000002
15 1 4.0 3.7178660000000012 14.871464000000005 11.153598000000002
16 1 4.0 3.7178660000000012 3.7178660000000012 7.4357320000000025
17 2 -2.0 1.8589330000000006 1.8589330000000006 13.012531000000005
18 2 -2.0 1.8589330000000006 5.576799000000001 13.012531000000005
19 2 -2.0 1.8589330000000006 5.576799000000001 9.294665000000002
20 2 -2.0 1.8589330000000006 1.8589330000000006 9.294665000000002
21 2 -2.0 5.576799000000001 1.8589330000000006 9.294665000000002
22 2 -2.0 5.576799000000001 5.576799000000001 9.294665000000002
23 2 -2.0 5.576799000000001 5.576799000000001 13.012531000000005
24 2 -2.0 5.576799000000001 1.8589330000000006 13.012531000000005
25 1 4.0 0.0 7.4357320000000025 0.0
26 1 4.0 0.0 11.153598000000002 3.7178660000000012
27 1 4.0 3.7178660000000012 7.4357320000000025 3.7178660000000012
28 1 4.0 3.7178660000000012 11.153598000000002 0.0
29 2 -2.0 1.8589330000000006 9.294665000000002 5.576799000000001
30 2 -2.0 1.8589330000000006 13.012531000000005 5.576799000000001
31 2 -2.0 1.8589330000000006 13.012531000000005 1.8589330000000006
32 2 -2.0 1.8589330000000006 9.294665000000002 1.8589330000000006
33 2 -2.0 5.576799000000001 9.294665000000002 1.8589330000000006
34 2 -2.0 5.576799000000001 13.012531000000005 1.8589330000000006
35 2 -2.0 5.576799000000001 13.012531000000005 5.576799000000001
36 2 -2.0 5.576799000000001 9.294665000000002 5.576799000000001
37 1 4.0 0.0 7.4357320000000025 7.4357320000000025
38 1 4.0 0.0 11.153598000000002 11.153598000000002
39 1 4.0 3.7178660000000012 7.4357320000000025 11.153598000000002
40 1 4.0 3.7178660000000012 11.153598000000002 7.4357320000000025
41 2 -2.0 1.8589330000000006 9.294665000000002 13.012531000000005
42 2 -2.0 1.8589330000000006 13.012531000000005 13.012531000000005
43 2 -2.0 1.8589330000000006 13.012531000000005 9.294665000000002
44 2 -2.0 1.8589330000000006 9.294665000000002 9.294665000000002
45 2 -2.0 5.576799000000001 9.294665000000002 9.294665000000002
46 2 -2.0 5.576799000000001 13.012531000000005 9.294665000000002
47 2 -2.0 5.576799000000001 13.012531000000005 13.012531000000005
48 2 -2.0 5.576799000000001 9.294665000000002 13.012531000000005
49 1 4.0 7.4357320000000025 0.0 0.0
50 1 4.0 7.4357320000000025 3.7178660000000012 3.7178660000000012
51 1 4.0 11.153598000000002 0.0 3.7178660000000012
52 1 4.0 11.153598000000002 3.7178660000000012 0.0
53 2 -2.0 9.294665000000002 1.8589330000000006 5.576799000000001
54 2 -2.0 9.294665000000002 5.576799000000001 5.576799000000001
55 2 -2.0 9.294665000000002 5.576799000000001 1.8589330000000006
56 2 -2.0 9.294665000000002 1.8589330000000006 1.8589330000000006
57 2 -2.0 13.012531000000005 1.8589330000000006 1.8589330000000006
58 2 -2.0 13.012531000000005 5.576799000000001 1.8589330000000006
59 2 -2.0 13.012531000000005 5.576799000000001 5.576799000000001
60 2 -2.0 13.012531000000005 1.8589330000000006 5.576799000000001
61 1 4.0 7.4357320000000025 0.0 7.4357320000000025
62 1 4.0 7.4357320000000025 3.7178660000000012 11.153598000000002
63 1 4.0 11.153598000000002 14.871464000000005 11.153598000000002
64 1 4.0 11.153598000000002 3.7178660000000012 7.4357320000000025
65 2 -2.0 9.294665000000002 1.8589330000000006 13.012531000000005
66 2 -2.0 9.294665000000002 5.576799000000001 13.012531000000005
67 2 -2.0 9.294665000000002 5.576799000000001 9.294665000000002
68 2 -2.0 9.294665000000002 1.8589330000000006 9.294665000000002
69 2 -2.0 13.012531000000005 1.8589330000000006 9.294665000000002
70 2 -2.0 13.012531000000005 5.576799000000001 9.294665000000002
71 2 -2.0 13.012531000000005 5.576799000000001 13.012531000000005
72 2 -2.0 13.012531000000005 1.8589330000000006 13.012531000000005
73 1 4.0 7.4357320000000025 7.4357320000000025 0.0
74 1 4.0 7.4357320000000025 11.153598000000002 3.7178660000000012
75 1 4.0 11.153598000000002 7.4357320000000025 3.7178660000000012
76 1 4.0 11.153598000000002 11.153598000000002 0.0
77 2 -2.0 9.294665000000002 9.294665000000002 5.576799000000001
78 2 -2.0 9.294665000000002 13.012531000000005 5.576799000000001
79 2 -2.0 9.294665000000002 13.012531000000005 1.8589330000000006
80 2 -2.0 9.294665000000002 9.294665000000002 1.8589330000000006
81 2 -2.0 13.012531000000005 9.294665000000002 1.8589330000000006
82 2 -2.0 13.012531000000005 13.012531000000005 1.8589330000000006
83 2 -2.0 13.012531000000005 13.012531000000005 5.576799000000001
84 2 -2.0 13.012531000000005 9.294665000000002 5.576799000000001
85 1 4.0 7.4357320000000025 7.4357320000000025 7.4357320000000025
86 1 4.0 7.4357320000000025 11.153598000000002 11.153598000000002
87 1 4.0 11.153598000000002 7.4357320000000025 11.153598000000002
88 1 4.0 11.153598000000002 11.153598000000002 7.4357320000000025
89 2 -2.0 9.294665000000002 9.294665000000002 13.012531000000005
90 2 -2.0 9.294665000000002 13.012531000000005 13.012531000000005
91 2 -2.0 9.294665000000002 13.012531000000005 9.294665000000002
92 2 -2.0 9.294665000000002 9.294665000000002 9.294665000000002
93 2 -2.0 13.012531000000005 9.294665000000002 9.294665000000002
94 2 -2.0 13.012531000000005 13.012531000000005 9.294665000000002
95 2 -2.0 13.012531000000005 13.012531000000005 13.012531000000005
96 2 -2.0 13.012531000000005 9.294665000000002 13.012531000000005
