 # "Ce32 O64"
  
          96  atoms
           2  atom types
 
0.0 17.058444000000005 xlo xhi
0.0 17.058444000000005 ylo yhi
0.0 17.058444000000005 zlo zhi
 
Masses
 
            1   140.11600000            # Ce
            2   15.99900000             # O
 
Atoms
 
1 1 4.0 0.0 0.0 0.0
2 1 4.0 0.0 4.264611000000001 4.264611000000001
3 1 4.0 4.264611000000001 0.0 4.264611000000001
4 1 4.0 4.264611000000001 4.264611000000001 0.0
5 2 -2.0 2.1323055000000006 2.1323055000000006 6.3969165000000014
6 2 -2.0 2.1323055000000006 6.3969165000000014 6.3969165000000014
7 2 -2.0 2.1323055000000006 6.3969165000000014 2.1323055000000006
8 2 -2.0 2.1323055000000006 2.1323055000000006 2.1323055000000006
9 2 -2.0 6.3969165000000014 2.1323055000000006 2.1323055000000006
10 2 -2.0 6.3969165000000014 6.3969165000000014 2.1323055000000006
11 2 -2.0 6.3969165000000014 6.3969165000000014 6.3969165000000014
12 2 -2.0 6.3969165000000014 2.1323055000000006 6.3969165000000014
13 1 4.0 0.0 0.0 8.529222000000003
14 1 4.0 0.0 4.264611000000001 12.793833000000003
15 1 4.0 4.264611000000001 17.058444000000005 12.793833000000003
16 1 4.0 4.264611000000001 4.264611000000001 8.529222000000003
17 2 -2.0 2.1323055000000006 2.1323055000000006 14.926138500000006
18 2 -2.0 2.1323055000000006 6.3969165000000014 14.926138500000006
19 2 -2.0 2.1323055000000006 6.3969165000000014 10.661527500000004
20 2 -2.0 2.1323055000000006 2.1323055000000006 10.661527500000004
21 2 -2.0 6.3969165000000014 2.1323055000000006 10.661527500000004
22 2 -2.0 6.3969165000000014 6.3969165000000014 10.661527500000004
23 2 -2.0 6.3969165000000014 6.3969165000000014 14.926138500000006
24 2 -2.0 6.3969165000000014 2.1323055000000006 14.926138500000006
25 1 4.0 0.0 8.529222000000003 0.0
26 1 4.0 0.0 12.793833000000003 4.264611000000001
27 1 4.0 4.264611000000001 8.529222000000003 4.264611000000001
28 1 4.0 4.264611000000001 12.793833000000003 0.0
29 2 -2.0 2.1323055000000006 10.661527500000004 6.3969165000000014
30 2 -2.0 2.1323055000000006 14.926138500000006 6.3969165000000014
31 2 -2.0 2.1323055000000006 14.926138500000006 2.1323055000000006
32 2 -2.0 2.1323055000000006 10.661527500000004 2.1323055000000006
33 2 -2.0 6.3969165000000014 10.661527500000004 2.1323055000000006
34 2 -2.0 6.3969165000000014 14.926138500000006 2.1323055000000006
35 2 -2.0 6.3969165000000014 14.926138500000006 6.3969165000000014
36 2 -2.0 6.3969165000000014 10.661527500000004 6.3969165000000014
37 1 4.0 0.0 8.529222000000003 8.529222000000003
38 1 4.0 0.0 12.793833000000003 12.793833000000003
39 1 4.0 4.264611000000001 8.529222000000003 12.793833000000003
40 1 4.0 4.264611000000001 12.793833000000003 8.529222000000003
41 2 -2.0 2.1323055000000006 10.661527500000004 14.926138500000006
42 2 -2.0 2.1323055000000006 14.926138500000006 14.926138500000006
43 2 -2.0 2.1323055000000006 14.926138500000006 10.661527500000004
44 2 -2.0 2.1323055000000006 10.661527500000004 10.661527500000004
45 2 -2.0 6.3969165000000014 10.661527500000004 10.661527500000004
46 2 -2.0 6.3969165000000014 14.926138500000006 10.661527500000004
47 2 -2.0 6.3969165000000014 14.926138500000006 14.926138500000006
48 2 -2.0 6.3969165000000014 10.661527500000004 14.926138500000006
49 1 4.0 8.529222000000003 0.0 0.0
50 1 4.0 8.529222000000003 4.264611000000001 4.264611000000001
51 1 4.0 12.793833000000003 0.0 4.264611000000001
52 1 4.0 12.793833000000003 4.264611000000001 0.0
53 2 -2.0 10.661527500000004 2.1323055000000006 6.3969165000000014
54 2 -2.0 10.661527500000004 6.3969165000000014 6.3969165000000014
55 2 -2.0 10.661527500000004 6.3969165000000014 2.1323055000000006
56 2 -2.0 10.661527500000004 2.1323055000000006 2.1323055000000006
57 2 -2.0 14.926138500000006 2.1323055000000006 2.1323055000000006
58 2 -2.0 14.926138500000006 6.3969165000000014 2.1323055000000006
59 2 -2.0 14.926138500000006 6.3969165000000014 6.3969165000000014
60 2 -2.0 14.926138500000006 2.1323055000000006 6.3969165000000014
61 1 4.0 8.529222000000003 0.0 8.529222000000003
62 1 4.0 8.529222000000003 4.264611000000001 12.793833000000003
63 1 4.0 12.793833000000003 17.058444000000005 12.793833000000003
64 1 4.0 12.793833000000003 4.264611000000001 8.529222000000003
65 2 -2.0 10.661527500000004 2.1323055000000006 14.926138500000006
66 2 -2.0 10.661527500000004 6.3969165000000014 14.926138500000006
67 2 -2.0 10.661527500000004 6.3969165000000014 10.661527500000004
68 2 -2.0 10.661527500000004 2.1323055000000006 10.661527500000004
69 2 -2.0 14.926138500000006 2.1323055000000006 10.661527500000004
70 2 -2.0 14.926138500000006 6.3969165000000014 10.661527500000004
71 2 -2.0 14.926138500000006 6.3969165000000014 14.926138500000006
72 2 -2.0 14.926138500000006 2.1323055000000006 14.926138500000006
73 1 4.0 8.529222000000003 8.529222000000003 0.0
74 1 4.0 8.529222000000003 12.793833000000003 4.264611000000001
75 1 4.0 12.793833000000003 8.529222000000003 4.264611000000001
76 1 4.0 12.793833000000003 12.793833000000003 0.0
77 2 -2.0 10.661527500000004 10.661527500000004 6.3969165000000014
78 2 -2.0 10.661527500000004 14.926138500000006 6.3969165000000014
79 2 -2.0 10.661527500000004 14.926138500000006 2.1323055000000006
80 2 -2.0 10.661527500000004 10.661527500000004 2.1323055000000006
81 2 -2.0 14.926138500000006 10.661527500000004 2.1323055000000006
82 2 -2.0 14.926138500000006 14.926138500000006 2.1323055000000006
83 2 -2.0 14.926138500000006 14.926138500000006 6.3969165000000014
84 2 -2.0 14.926138500000006 10.661527500000004 6.3969165000000014
85 1 4.0 8.529222000000003 8.529222000000003 8.529222000000003
86 1 4.0 8.529222000000003 12.793833000000003 12.793833000000003
87 1 4.0 12.793833000000003 8.529222000000003 12.793833000000003
88 1 4.0 12.793833000000003 12.793833000000003 8.529222000000003
89 2 -2.0 10.661527500000004 10.661527500000004 14.926138500000006
90 2 -2.0 10.661527500000004 14.926138500000006 14.926138500000006
91 2 -2.0 10.661527500000004 14.926138500000006 10.661527500000004
92 2 -2.0 10.661527500000004 10.661527500000004 10.661527500000004
93 2 -2.0 14.926138500000006 10.661527500000004 10.661527500000004
94 2 -2.0 14.926138500000006 14.926138500000006 10.661527500000004
95 2 -2.0 14.926138500000006 14.926138500000006 14.926138500000006
96 2 -2.0 14.926138500000006 10.661527500000004 14.926138500000006
