 # "Ce32 O64"
  
          96  atoms
           2  atom types
 
0.0 12.465786000000001 xlo xhi
0.0 12.465786000000001 ylo yhi
0.0 12.465786000000001 zlo zhi
 
Masses
 
            1   140.11600000            # Ce
            2   15.99900000             # O
 
Atoms
 
1 1 4.0 0.0 0.0 0.0
2 1 4.0 0.0 3.1164465000000003 3.1164465000000003
3 1 4.0 3.1164465000000003 0.0 3.1164465000000003
4 1 4.0 3.1164465000000003 3.1164465000000003 0.0
5 2 -2.0 1.5582232500000002 1.5582232500000002 4.67466975
6 2 -2.0 1.5582232500000002 4.67466975 4.67466975
7 2 -2.0 1.5582232500000002 4.67466975 1.5582232500000002
8 2 -2.0 1.5582232500000002 1.5582232500000002 1.5582232500000002
9 2 -2.0 4.67466975 1.5582232500000002 1.5582232500000002
10 2 -2.0 4.67466975 4.67466975 1.5582232500000002
11 2 -2.0 4.67466975 4.67466975 4.67466975
12 2 -2.0 4.67466975 1.5582232500000002 4.67466975
13 1 4.0 0.0 0.0 6.232893000000001
14 1 4.0 0.0 3.1164465000000003 9.3493395
15 1 4.0 3.1164465000000003 12.465786000000001 9.3493395
16 1 4.0 3.1164465000000003 3.1164465000000003 6.232893000000001
17 2 -2.0 1.5582232500000002 1.5582232500000002 10.907562750000002
18 2 -2.0 1.5582232500000002 4.67466975 10.907562750000002
19 2 -2.0 1.5582232500000002 4.67466975 7.791116250000001
20 2 -2.0 1.5582232500000002 1.5582232500000002 7.791116250000001
21 2 -2.0 4.67466975 1.5582232500000002 7.791116250000001
22 2 -2.0 4.67466975 4.67466975 7.791116250000001
23 2 -2.0 4.67466975 4.67466975 10.907562750000002
24 2 -2.0 4.67466975 1.5582232500000002 10.907562750000002
25 1 4.0 0.0 6.232893000000001 0.0
26 1 4.0 0.0 9.3493395 3.1164465000000003
27 1 4.0 3.1164465000000003 6.232893000000001 3.1164465000000003
28 1 4.0 3.1164465000000003 9.3493395 0.0
29 2 -2.0 1.5582232500000002 7.791116250000001 4.67466975
30 2 -2.0 1.5582232500000002 10.907562750000002 4.67466975
31 2 -2.0 1.5582232500000002 10.907562750000002 1.5582232500000002
32 2 -2.0 1.5582232500000002 7.791116250000001 1.5582232500000002
33 2 -2.0 4.67466975 7.791116250000001 1.5582232500000002
34 2 -2.0 4.67466975 10.907562750000002 1.5582232500000002
35 2 -2.0 4.67466975 10.907562750000002 4.67466975
36 2 -2.0 4.67466975 7.791116250000001 4.67466975
37 1 4.0 0.0 6.232893000000001 6.232893000000001
38 1 4.0 0.0 9.3493395 9.3493395
39 1 4.0 3.1164465000000003 6.232893000000001 9.3493395
40 1 4.0 3.1164465000000003 9.3493395 6.232893000000001
41 2 -2.0 1.5582232500000002 7.791116250000001 10.907562750000002
42 2 -2.0 1.5582232500000002 10.907562750000002 10.907562750000002
43 2 -2.0 1.5582232500000002 10.907562750000002 7.791116250000001
44 2 -2.0 1.5582232500000002 7.791116250000001 7.791116250000001
45 2 -2.0 4.67466975 7.791116250000001 7.791116250000001
46 2 -2.0 4.67466975 10.907562750000002 7.791116250000001
47 2 -2.0 4.67466975 10.907562750000002 10.907562750000002
48 2 -2.0 4.67466975 7.791116250000001 10.907562750000002
49 1 4.0 6.232893000000001 0.0 0.0
50 1 4.0 6.232893000000001 3.1164465000000003 3.1164465000000003
51 1 4.0 9.3493395 0.0 3.1164465000000003
52 1 4.0 9.3493395 3.1164465000000003 0.0
53 2 -2.0 7.791116250000001 1.5582232500000002 4.67466975
54 2 -2.0 7.791116250000001 4.67466975 4.67466975
55 2 -2.0 7.791116250000001 4.67466975 1.5582232500000002
56 2 -2.0 7.791116250000001 1.5582232500000002 1.5582232500000002
57 2 -2.0 10.907562750000002 1.5582232500000002 1.5582232500000002
58 2 -2.0 10.907562750000002 4.67466975 1.5582232500000002
59 2 -2.0 10.907562750000002 4.67466975 4.67466975
60 2 -2.0 10.907562750000002 1.5582232500000002 4.67466975
61 1 4.0 6.232893000000001 0.0 6.232893000000001
62 1 4.0 6.232893000000001 3.1164465000000003 9.3493395
63 1 4.0 9.3493395 12.465786000000001 9.3493395
64 1 4.0 9.3493395 3.1164465000000003 6.232893000000001
65 2 -2.0 7.791116250000001 1.5582232500000002 10.907562750000002
66 2 -2.0 7.791116250000001 4.67466975 10.907562750000002
67 2 -2.0 7.791116250000001 4.67466975 7.791116250000001
68 2 -2.0 7.791116250000001 1.5582232500000002 7.791116250000001
69 2 -2.0 10.907562750000002 1.5582232500000002 7.791116250000001
70 2 -2.0 10.907562750000002 4.67466975 7.791116250000001
71 2 -2.0 10.907562750000002 4.67466975 10.907562750000002
72 2 -2.0 10.907562750000002 1.5582232500000002 10.907562750000002
73 1 4.0 6.232893000000001 6.232893000000001 0.0
74 1 4.0 6.232893000000001 9.3493395 3.1164465000000003
75 1 4.0 9.3493395 6.232893000000001 3.1164465000000003
76 1 4.0 9.3493395 9.3493395 0.0
77 2 -2.0 7.791116250000001 7.791116250000001 4.67466975
78 2 -2.0 7.791116250000001 10.907562750000002 4.67466975
79 2 -2.0 7.791116250000001 10.907562750000002 1.5582232500000002
80 2 -2.0 7.791116250000001 7.791116250000001 1.5582232500000002
81 2 -2.0 10.907562750000002 7.791116250000001 1.5582232500000002
82 2 -2.0 10.907562750000002 10.907562750000002 1.5582232500000002
83 2 -2.0 10.907562750000002 10.907562750000002 4.67466975
84 2 -2.0 10.907562750000002 7.791116250000001 4.67466975
85 1 4.0 6.232893000000001 6.232893000000001 6.232893000000001
86 1 4.0 6.232893000000001 9.3493395 9.3493395
87 1 4.0 9.3493395 6.232893000000001 9.3493395
88 1 4.0 9.3493395 9.3493395 6.232893000000001
89 2 -2.0 7.791116250000001 7.791116250000001 10.907562750000002
90 2 -2.0 7.791116250000001 10.907562750000002 10.907562750000002
91 2 -2.0 7.791116250000001 10.907562750000002 7.791116250000001
92 2 -2.0 7.791116250000001 7.791116250000001 7.791116250000001
93 2 -2.0 10.907562750000002 7.791116250000001 7.791116250000001
94 2 -2.0 10.907562750000002 10.907562750000002 7.791116250000001
95 2 -2.0 10.907562750000002 10.907562750000002 10.907562750000002
96 2 -2.0 10.907562750000002 7.791116250000001 10.907562750000002
