 # "Ce32 O64"
  
          96  atoms
           2  atom types
 
0.0 13.668625000000004 xlo xhi
0.0 13.668625000000004 ylo yhi
0.0 13.668625000000004 zlo zhi
 
Masses
 
            1   140.11600000            # Ce
            2   15.99900000             # O
 
Atoms
 
1 1 4.0 0.0 0.0 0.0
2 1 4.0 0.0 3.417156250000001 3.417156250000001
3 1 4.0 3.417156250000001 0.0 3.417156250000001
4 1 4.0 3.417156250000001 3.417156250000001 0.0
5 2 -2.0 1.7085781250000005 1.7085781250000005 5.125734375
6 2 -2.0 1.7085781250000005 5.125734375 5.125734375
7 2 -2.0 1.7085781250000005 5.125734375 1.7085781250000005
8 2 -2.0 1.7085781250000005 1.7085781250000005 1.7085781250000005
9 2 -2.0 5.125734375 1.7085781250000005 1.7085781250000005
10 2 -2.0 5.125734375 5.125734375 1.7085781250000005
11 2 -2.0 5.125734375 5.125734375 5.125734375
12 2 -2.0 5.125734375 1.7085781250000005 5.125734375
13 1 4.0 0.0 0.0 6.834312500000002
14 1 4.0 0.0 3.417156250000001 10.25146875
15 1 4.0 3.417156250000001 13.668625000000004 10.25146875
16 1 4.0 3.417156250000001 3.417156250000001 6.834312500000002
17 2 -2.0 1.7085781250000005 1.7085781250000005 11.960046875000003
18 2 -2.0 1.7085781250000005 5.125734375 11.960046875000003
19 2 -2.0 1.7085781250000005 5.125734375 8.542890625000002
20 2 -2.0 1.7085781250000005 1.7085781250000005 8.542890625000002
21 2 -2.0 5.125734375 1.7085781250000005 8.542890625000002
22 2 -2.0 5.125734375 5.125734375 8.542890625000002
23 2 -2.0 5.125734375 5.125734375 11.960046875000003
24 2 -2.0 5.125734375 1.7085781250000005 11.960046875000003
25 1 4.0 0.0 6.834312500000002 0.0
26 1 4.0 0.0 10.25146875 3.417156250000001
27 1 4.0 3.417156250000001 6.834312500000002 3.417156250000001
28 1 4.0 3.417156250000001 10.25146875 0.0
29 2 -2.0 1.7085781250000005 8.542890625000002 5.125734375
30 2 -2.0 1.7085781250000005 11.960046875000003 5.125734375
31 2 -2.0 1.7085781250000005 11.960046875000003 1.7085781250000005
32 2 -2.0 1.7085781250000005 8.542890625000002 1.7085781250000005
33 2 -2.0 5.125734375 8.542890625000002 1.7085781250000005
34 2 -2.0 5.125734375 11.960046875000003 1.7085781250000005
35 2 -2.0 5.125734375 11.960046875000003 5.125734375
36 2 -2.0 5.125734375 8.542890625000002 5.125734375
37 1 4.0 0.0 6.834312500000002 6.834312500000002
38 1 4.0 0.0 10.25146875 10.25146875
39 1 4.0 3.417156250000001 6.834312500000002 10.25146875
40 1 4.0 3.417156250000001 10.25146875 6.834312500000002
41 2 -2.0 1.7085781250000005 8.542890625000002 11.960046875000003
42 2 -2.0 1.7085781250000005 11.960046875000003 11.960046875000003
43 2 -2.0 1.7085781250000005 11.960046875000003 8.542890625000002
44 2 -2.0 1.7085781250000005 8.542890625000002 8.542890625000002
45 2 -2.0 5.125734375 8.542890625000002 8.542890625000002
46 2 -2.0 5.125734375 11.960046875000003 8.542890625000002
47 2 -2.0 5.125734375 11.960046875000003 11.960046875000003
48 2 -2.0 5.125734375 8.542890625000002 11.960046875000003
49 1 4.0 6.834312500000002 0.0 0.0
50 1 4.0 6.834312500000002 3.417156250000001 3.417156250000001
51 1 4.0 10.25146875 0.0 3.417156250000001
52 1 4.0 10.25146875 3.417156250000001 0.0
53 2 -2.0 8.542890625000002 1.7085781250000005 5.125734375
54 2 -2.0 8.542890625000002 5.125734375 5.125734375
55 2 -2.0 8.542890625000002 5.125734375 1.7085781250000005
56 2 -2.0 8.542890625000002 1.7085781250000005 1.7085781250000005
57 2 -2.0 11.960046875000003 1.7085781250000005 1.7085781250000005
58 2 -2.0 11.960046875000003 5.125734375 1.7085781250000005
59 2 -2.0 11.960046875000003 5.125734375 5.125734375
60 2 -2.0 11.960046875000003 1.7085781250000005 5.125734375
61 1 4.0 6.834312500000002 0.0 6.834312500000002
62 1 4.0 6.834312500000002 3.417156250000001 10.25146875
63 1 4.0 10.25146875 13.668625000000004 10.25146875
64 1 4.0 10.25146875 3.417156250000001 6.834312500000002
65 2 -2.0 8.542890625000002 1.7085781250000005 11.960046875000003
66 2 -2.0 8.542890625000002 5.125734375 11.960046875000003
67 2 -2.0 8.542890625000002 5.125734375 8.542890625000002
68 2 -2.0 8.542890625000002 1.7085781250000005 8.542890625000002
69 2 -2.0 11.960046875000003 1.7085781250000005 8.542890625000002
70 2 -2.0 11.960046875000003 5.125734375 8.542890625000002
71 2 -2.0 11.960046875000003 5.125734375 11.960046875000003
72 2 -2.0 11.960046875000003 1.7085781250000005 11.960046875000003
73 1 4.0 6.834312500000002 6.834312500000002 0.0
74 1 4.0 6.834312500000002 10.25146875 3.417156250000001
75 1 4.0 10.25146875 6.834312500000002 3.417156250000001
76 1 4.0 10.25146875 10.25146875 0.0
77 2 -2.0 8.542890625000002 8.542890625000002 5.125734375
78 2 -2.0 8.542890625000002 11.960046875000003 5.125734375
79 2 -2.0 8.542890625000002 11.960046875000003 1.7085781250000005
80 2 -2.0 8.542890625000002 8.542890625000002 1.7085781250000005
81 2 -2.0 11.960046875000003 8.542890625000002 1.7085781250000005
82 2 -2.0 11.960046875000003 11.960046875000003 1.7085781250000005
83 2 -2.0 11.960046875000003 11.960046875000003 5.125734375
84 2 -2.0 11.960046875000003 8.542890625000002 5.125734375
85 1 4.0 6.834312500000002 6.834312500000002 6.834312500000002
86 1 4.0 6.834312500000002 10.25146875 10.25146875
87 1 4.0 10.25146875 6.834312500000002 10.25146875
88 1 4.0 10.25146875 10.25146875 6.834312500000002
89 2 -2.0 8.542890625000002 8.542890625000002 11.960046875000003
90 2 -2.0 8.542890625000002 11.960046875000003 11.960046875000003
91 2 -2.0 8.542890625000002 11.960046875000003 8.542890625000002
92 2 -2.0 8.542890625000002 8.542890625000002 8.542890625000002
93 2 -2.0 11.960046875000003 8.542890625000002 8.542890625000002
94 2 -2.0 11.960046875000003 11.960046875000003 8.542890625000002
95 2 -2.0 11.960046875000003 11.960046875000003 11.960046875000003
96 2 -2.0 11.960046875000003 8.542890625000002 11.960046875000003
