 # "Ce32 O64"
  
          96  atoms
           2  atom types
 
0.0 14.980813000000005 xlo xhi
0.0 14.980813000000005 ylo yhi
0.0 14.980813000000005 zlo zhi
 
Masses
 
            1   140.11600000            # Ce
            2   15.99900000             # O
 
Atoms
 
1 1 4.0 0.0 0.0 0.0
2 1 4.0 0.0 3.745203250000001 3.745203250000001
3 1 4.0 3.745203250000001 0.0 3.745203250000001
4 1 4.0 3.745203250000001 3.745203250000001 0.0
5 2 -2.0 1.8726016250000006 1.8726016250000006 5.617804875000001
6 2 -2.0 1.8726016250000006 5.617804875000001 5.617804875000001
7 2 -2.0 1.8726016250000006 5.617804875000001 1.8726016250000006
8 2 -2.0 1.8726016250000006 1.8726016250000006 1.8726016250000006
9 2 -2.0 5.617804875000001 1.8726016250000006 1.8726016250000006
10 2 -2.0 5.617804875000001 5.617804875000001 1.8726016250000006
11 2 -2.0 5.617804875000001 5.617804875000001 5.617804875000001
12 2 -2.0 5.617804875000001 1.8726016250000006 5.617804875000001
13 1 4.0 0.0 0.0 7.490406500000002
14 1 4.0 0.0 3.745203250000001 11.235609750000002
15 1 4.0 3.745203250000001 14.980813000000005 11.235609750000002
16 1 4.0 3.745203250000001 3.745203250000001 7.490406500000002
17 2 -2.0 1.8726016250000006 1.8726016250000006 13.108211375000005
18 2 -2.0 1.8726016250000006 5.617804875000001 13.108211375000005
19 2 -2.0 1.8726016250000006 5.617804875000001 9.363008125000002
20 2 -2.0 1.8726016250000006 1.8726016250000006 9.363008125000002
21 2 -2.0 5.617804875000001 1.8726016250000006 9.363008125000002
22 2 -2.0 5.617804875000001 5.617804875000001 9.363008125000002
23 2 -2.0 5.617804875000001 5.617804875000001 13.108211375000005
24 2 -2.0 5.617804875000001 1.8726016250000006 13.108211375000005
25 1 4.0 0.0 7.490406500000002 0.0
26 1 4.0 0.0 11.235609750000002 3.745203250000001
27 1 4.0 3.745203250000001 7.490406500000002 3.745203250000001
28 1 4.0 3.745203250000001 11.235609750000002 0.0
29 2 -2.0 1.8726016250000006 9.363008125000002 5.617804875000001
30 2 -2.0 1.8726016250000006 13.108211375000005 5.617804875000001
31 2 -2.0 1.8726016250000006 13.108211375000005 1.8726016250000006
32 2 -2.0 1.8726016250000006 9.363008125000002 1.8726016250000006
33 2 -2.0 5.617804875000001 9.363008125000002 1.8726016250000006
34 2 -2.0 5.617804875000001 13.108211375000005 1.8726016250000006
35 2 -2.0 5.617804875000001 13.108211375000005 5.617804875000001
36 2 -2.0 5.617804875000001 9.363008125000002 5.617804875000001
37 1 4.0 0.0 7.490406500000002 7.490406500000002
38 1 4.0 0.0 11.235609750000002 11.235609750000002
39 1 4.0 3.745203250000001 7.490406500000002 11.235609750000002
40 1 4.0 3.745203250000001 11.235609750000002 7.490406500000002
41 2 -2.0 1.8726016250000006 9.363008125000002 13.108211375000005
42 2 -2.0 1.8726016250000006 13.108211375000005 13.108211375000005
43 2 -2.0 1.8726016250000006 13.108211375000005 9.363008125000002
44 2 -2.0 1.8726016250000006 9.363008125000002 9.363008125000002
45 2 -2.0 5.617804875000001 9.363008125000002 9.363008125000002
46 2 -2.0 5.617804875000001 13.108211375000005 9.363008125000002
47 2 -2.0 5.617804875000001 13.108211375000005 13.108211375000005
48 2 -2.0 5.617804875000001 9.363008125000002 13.108211375000005
49 1 4.0 7.490406500000002 0.0 0.0
50 1 4.0 7.490406500000002 3.745203250000001 3.745203250000001
51 1 4.0 11.235609750000002 0.0 3.745203250000001
52 1 4.0 11.235609750000002 3.745203250000001 0.0
53 2 -2.0 9.363008125000002 1.8726016250000006 5.617804875000001
54 2 -2.0 9.363008125000002 5.617804875000001 5.617804875000001
55 2 -2.0 9.363008125000002 5.617804875000001 1.8726016250000006
56 2 -2.0 9.363008125000002 1.8726016250000006 1.8726016250000006
57 2 -2.0 13.108211375000005 1.8726016250000006 1.8726016250000006
58 2 -2.0 13.108211375000005 5.617804875000001 1.8726016250000006
59 2 -2.0 13.108211375000005 5.617804875000001 5.617804875000001
60 2 -2.0 13.108211375000005 1.8726016250000006 5.617804875000001
61 1 4.0 7.490406500000002 0.0 7.490406500000002
62 1 4.0 7.490406500000002 3.745203250000001 11.235609750000002
63 1 4.0 11.235609750000002 14.980813000000005 11.235609750000002
64 1 4.0 11.235609750000002 3.745203250000001 7.490406500000002
65 2 -2.0 9.363008125000002 1.8726016250000006 13.108211375000005
66 2 -2.0 9.363008125000002 5.617804875000001 13.108211375000005
67 2 -2.0 9.363008125000002 5.617804875000001 9.363008125000002
68 2 -2.0 9.363008125000002 1.8726016250000006 9.363008125000002
69 2 -2.0 13.108211375000005 1.8726016250000006 9.363008125000002
70 2 -2.0 13.108211375000005 5.617804875000001 9.363008125000002
71 2 -2.0 13.108211375000005 5.617804875000001 13.108211375000005
72 2 -2.0 13.108211375000005 1.8726016250000006 13.108211375000005
73 1 4.0 7.490406500000002 7.490406500000002 0.0
74 1 4.0 7.490406500000002 11.235609750000002 3.745203250000001
75 1 4.0 11.235609750000002 7.490406500000002 3.745203250000001
76 1 4.0 11.235609750000002 11.235609750000002 0.0
77 2 -2.0 9.363008125000002 9.363008125000002 5.617804875000001
78 2 -2.0 9.363008125000002 13.108211375000005 5.617804875000001
79 2 -2.0 9.363008125000002 13.108211375000005 1.8726016250000006
80 2 -2.0 9.363008125000002 9.363008125000002 1.8726016250000006
81 2 -2.0 13.108211375000005 9.363008125000002 1.8726016250000006
82 2 -2.0 13.108211375000005 13.108211375000005 1.8726016250000006
83 2 -2.0 13.108211375000005 13.108211375000005 5.617804875000001
84 2 -2.0 13.108211375000005 9.363008125000002 5.617804875000001
85 1 4.0 7.490406500000002 7.490406500000002 7.490406500000002
86 1 4.0 7.490406500000002 11.235609750000002 11.235609750000002
87 1 4.0 11.235609750000002 7.490406500000002 11.235609750000002
88 1 4.0 11.235609750000002 11.235609750000002 7.490406500000002
89 2 -2.0 9.363008125000002 9.363008125000002 13.108211375000005
90 2 -2.0 9.363008125000002 13.108211375000005 13.108211375000005
91 2 -2.0 9.363008125000002 13.108211375000005 9.363008125000002
92 2 -2.0 9.363008125000002 9.363008125000002 9.363008125000002
93 2 -2.0 13.108211375000005 9.363008125000002 9.363008125000002
94 2 -2.0 13.108211375000005 13.108211375000005 9.363008125000002
95 2 -2.0 13.108211375000005 13.108211375000005 13.108211375000005
96 2 -2.0 13.108211375000005 9.363008125000002 13.108211375000005
