 # "Ce32 O64"
  
          96  atoms
           2  atom types
 
0.0 11.590994000000002 xlo xhi
0.0 11.590994000000002 ylo yhi
0.0 11.590994000000002 zlo zhi
 
Masses
 
            1   140.11600000            # Ce
            2   15.99900000             # O
 
Atoms
 
1 1 4.0 0.0 0.0 0.0
2 1 4.0 0.0 2.8977485000000005 2.8977485000000005
3 1 4.0 2.8977485000000005 0.0 2.8977485000000005
4 1 4.0 2.8977485000000005 2.8977485000000005 0.0
5 2 -2.0 1.4488742500000003 1.4488742500000003 4.34662275
6 2 -2.0 1.4488742500000003 4.34662275 4.34662275
7 2 -2.0 1.4488742500000003 4.34662275 1.4488742500000003
8 2 -2.0 1.4488742500000003 1.4488742500000003 1.4488742500000003
9 2 -2.0 4.34662275 1.4488742500000003 1.4488742500000003
10 2 -2.0 4.34662275 4.34662275 1.4488742500000003
11 2 -2.0 4.34662275 4.34662275 4.34662275
12 2 -2.0 4.34662275 1.4488742500000003 4.34662275
13 1 4.0 0.0 0.0 5.795497000000001
14 1 4.0 0.0 2.8977485000000005 8.6932455
15 1 4.0 2.8977485000000005 11.590994000000002 8.6932455
16 1 4.0 2.8977485000000005 2.8977485000000005 5.795497000000001
17 2 -2.0 1.4488742500000003 1.4488742500000003 10.14211975
18 2 -2.0 1.4488742500000003 4.34662275 10.14211975
19 2 -2.0 1.4488742500000003 4.34662275 7.24437125
20 2 -2.0 1.4488742500000003 1.4488742500000003 7.24437125
21 2 -2.0 4.34662275 1.4488742500000003 7.24437125
22 2 -2.0 4.34662275 4.34662275 7.24437125
23 2 -2.0 4.34662275 4.34662275 10.14211975
24 2 -2.0 4.34662275 1.4488742500000003 10.14211975
25 1 4.0 0.0 5.795497000000001 0.0
26 1 4.0 0.0 8.6932455 2.8977485000000005
27 1 4.0 2.8977485000000005 5.795497000000001 2.8977485000000005
28 1 4.0 2.8977485000000005 8.6932455 0.0
29 2 -2.0 1.4488742500000003 7.24437125 4.34662275
30 2 -2.0 1.4488742500000003 10.14211975 4.34662275
31 2 -2.0 1.4488742500000003 10.14211975 1.4488742500000003
32 2 -2.0 1.4488742500000003 7.24437125 1.4488742500000003
33 2 -2.0 4.34662275 7.24437125 1.4488742500000003
34 2 -2.0 4.34662275 10.14211975 1.4488742500000003
35 2 -2.0 4.34662275 10.14211975 4.34662275
36 2 -2.0 4.34662275 7.24437125 4.34662275
37 1 4.0 0.0 5.795497000000001 5.795497000000001
38 1 4.0 0.0 8.6932455 8.6932455
39 1 4.0 2.8977485000000005 5.795497000000001 8.6932455
40 1 4.0 2.8977485000000005 8.6932455 5.795497000000001
41 2 -2.0 1.4488742500000003 7.24437125 10.14211975
42 2 -2.0 1.4488742500000003 10.14211975 10.14211975
43 2 -2.0 1.4488742500000003 10.14211975 7.24437125
44 2 -2.0 1.4488742500000003 7.24437125 7.24437125
45 2 -2.0 4.34662275 7.24437125 7.24437125
46 2 -2.0 4.34662275 10.14211975 7.24437125
47 2 -2.0 4.34662275 10.14211975 10.14211975
48 2 -2.0 4.34662275 7.24437125 10.14211975
49 1 4.0 5.795497000000001 0.0 0.0
50 1 4.0 5.795497000000001 2.8977485000000005 2.8977485000000005
51 1 4.0 8.6932455 0.0 2.8977485000000005
52 1 4.0 8.6932455 2.8977485000000005 0.0
53 2 -2.0 7.24437125 1.4488742500000003 4.34662275
54 2 -2.0 7.24437125 4.34662275 4.34662275
55 2 -2.0 7.24437125 4.34662275 1.4488742500000003
56 2 -2.0 7.24437125 1.4488742500000003 1.4488742500000003
57 2 -2.0 10.14211975 1.4488742500000003 1.4488742500000003
58 2 -2.0 10.14211975 4.34662275 1.4488742500000003
59 2 -2.0 10.14211975 4.34662275 4.34662275
60 2 -2.0 10.14211975 1.4488742500000003 4.34662275
61 1 4.0 5.795497000000001 0.0 5.795497000000001
62 1 4.0 5.795497000000001 2.8977485000000005 8.6932455
63 1 4.0 8.6932455 11.590994000000002 8.6932455
64 1 4.0 8.6932455 2.8977485000000005 5.795497000000001
65 2 -2.0 7.24437125 1.4488742500000003 10.14211975
66 2 -2.0 7.24437125 4.34662275 10.14211975
67 2 -2.0 7.24437125 4.34662275 7.24437125
68 2 -2.0 7.24437125 1.4488742500000003 7.24437125
69 2 -2.0 10.14211975 1.4488742500000003 7.24437125
70 2 -2.0 10.14211975 4.34662275 7.24437125
71 2 -2.0 10.14211975 4.34662275 10.14211975
72 2 -2.0 10.14211975 1.4488742500000003 10.14211975
73 1 4.0 5.795497000000001 5.795497000000001 0.0
74 1 4.0 5.795497000000001 8.6932455 2.8977485000000005
75 1 4.0 8.6932455 5.795497000000001 2.8977485000000005
76 1 4.0 8.6932455 8.6932455 0.0
77 2 -2.0 7.24437125 7.24437125 4.34662275
78 2 -2.0 7.24437125 10.14211975 4.34662275
79 2 -2.0 7.24437125 10.14211975 1.4488742500000003
80 2 -2.0 7.24437125 7.24437125 1.4488742500000003
81 2 -2.0 10.14211975 7.24437125 1.4488742500000003
82 2 -2.0 10.14211975 10.14211975 1.4488742500000003
83 2 -2.0 10.14211975 10.14211975 4.34662275
84 2 -2.0 10.14211975 7.24437125 4.34662275
85 1 4.0 5.795497000000001 5.795497000000001 5.795497000000001
86 1 4.0 5.795497000000001 8.6932455 8.6932455
87 1 4.0 8.6932455 5.795497000000001 8.6932455
88 1 4.0 8.6932455 8.6932455 5.795497000000001
89 2 -2.0 7.24437125 7.24437125 10.14211975
90 2 -2.0 7.24437125 10.14211975 10.14211975
91 2 -2.0 7.24437125 10.14211975 7.24437125
92 2 -2.0 7.24437125 7.24437125 7.24437125
93 2 -2.0 10.14211975 7.24437125 7.24437125
94 2 -2.0 10.14211975 10.14211975 7.24437125
95 2 -2.0 10.14211975 10.14211975 10.14211975
96 2 -2.0 10.14211975 7.24437125 10.14211975
