 # "Ce32 O64"
  
          96  atoms
           2  atom types
 
0.0 13.012531000000003 xlo xhi
0.0 13.012531000000003 ylo yhi
0.0 13.012531000000003 zlo zhi
 
Masses
 
            1   140.11600000            # Ce
            2   15.99900000             # O
 
Atoms
 
1 1 4.0 0.0 0.0 0.0
2 1 4.0 0.0 3.2531327500000007 3.2531327500000007
3 1 4.0 3.2531327500000007 0.0 3.2531327500000007
4 1 4.0 3.2531327500000007 3.2531327500000007 0.0
5 2 -2.0 1.6265663750000003 1.6265663750000003 4.879699125
6 2 -2.0 1.6265663750000003 4.879699125 4.879699125
7 2 -2.0 1.6265663750000003 4.879699125 1.6265663750000003
8 2 -2.0 1.6265663750000003 1.6265663750000003 1.6265663750000003
9 2 -2.0 4.879699125 1.6265663750000003 1.6265663750000003
10 2 -2.0 4.879699125 4.879699125 1.6265663750000003
11 2 -2.0 4.879699125 4.879699125 4.879699125
12 2 -2.0 4.879699125 1.6265663750000003 4.879699125
13 1 4.0 0.0 0.0 6.506265500000001
14 1 4.0 0.0 3.2531327500000007 9.75939825
15 1 4.0 3.2531327500000007 13.012531000000003 9.75939825
16 1 4.0 3.2531327500000007 3.2531327500000007 6.506265500000001
17 2 -2.0 1.6265663750000003 1.6265663750000003 11.385964625000003
18 2 -2.0 1.6265663750000003 4.879699125 11.385964625000003
19 2 -2.0 1.6265663750000003 4.879699125 8.132831875
20 2 -2.0 1.6265663750000003 1.6265663750000003 8.132831875
21 2 -2.0 4.879699125 1.6265663750000003 8.132831875
22 2 -2.0 4.879699125 4.879699125 8.132831875
23 2 -2.0 4.879699125 4.879699125 11.385964625000003
24 2 -2.0 4.879699125 1.6265663750000003 11.385964625000003
25 1 4.0 0.0 6.506265500000001 0.0
26 1 4.0 0.0 9.75939825 3.2531327500000007
27 1 4.0 3.2531327500000007 6.506265500000001 3.2531327500000007
28 1 4.0 3.2531327500000007 9.75939825 0.0
29 2 -2.0 1.6265663750000003 8.132831875 4.879699125
30 2 -2.0 1.6265663750000003 11.385964625000003 4.879699125
31 2 -2.0 1.6265663750000003 11.385964625000003 1.6265663750000003
32 2 -2.0 1.6265663750000003 8.132831875 1.6265663750000003
33 2 -2.0 4.879699125 8.132831875 1.6265663750000003
34 2 -2.0 4.879699125 11.385964625000003 1.6265663750000003
35 2 -2.0 4.879699125 11.385964625000003 4.879699125
36 2 -2.0 4.879699125 8.132831875 4.879699125
37 1 4.0 0.0 6.506265500000001 6.506265500000001
38 1 4.0 0.0 9.75939825 9.75939825
39 1 4.0 3.2531327500000007 6.506265500000001 9.75939825
40 1 4.0 3.2531327500000007 9.75939825 6.506265500000001
41 2 -2.0 1.6265663750000003 8.132831875 11.385964625000003
42 2 -2.0 1.6265663750000003 11.385964625000003 11.385964625000003
43 2 -2.0 1.6265663750000003 11.385964625000003 8.132831875
44 2 -2.0 1.6265663750000003 8.132831875 8.132831875
45 2 -2.0 4.879699125 8.132831875 8.132831875
46 2 -2.0 4.879699125 11.385964625000003 8.132831875
47 2 -2.0 4.879699125 11.385964625000003 11.385964625000003
48 2 -2.0 4.879699125 8.132831875 11.385964625000003
49 1 4.0 6.506265500000001 0.0 0.0
50 1 4.0 6.506265500000001 3.2531327500000007 3.2531327500000007
51 1 4.0 9.75939825 0.0 3.2531327500000007
52 1 4.0 9.75939825 3.2531327500000007 0.0
53 2 -2.0 8.132831875 1.6265663750000003 4.879699125
54 2 -2.0 8.132831875 4.879699125 4.879699125
55 2 -2.0 8.132831875 4.879699125 1.6265663750000003
56 2 -2.0 8.132831875 1.6265663750000003 1.6265663750000003
57 2 -2.0 11.385964625000003 1.6265663750000003 1.6265663750000003
58 2 -2.0 11.385964625000003 4.879699125 1.6265663750000003
59 2 -2.0 11.385964625000003 4.879699125 4.879699125
60 2 -2.0 11.385964625000003 1.6265663750000003 4.879699125
61 1 4.0 6.506265500000001 0.0 6.506265500000001
62 1 4.0 6.506265500000001 3.2531327500000007 9.75939825
63 1 4.0 9.75939825 13.012531000000003 9.75939825
64 1 4.0 9.75939825 3.2531327500000007 6.506265500000001
65 2 -2.0 8.132831875 1.6265663750000003 11.385964625000003
66 2 -2.0 8.132831875 4.879699125 11.385964625000003
67 2 -2.0 8.132831875 4.879699125 8.132831875
68 2 -2.0 8.132831875 1.6265663750000003 8.132831875
69 2 -2.0 11.385964625000003 1.6265663750000003 8.132831875
70 2 -2.0 11.385964625000003 4.879699125 8.132831875
71 2 -2.0 11.385964625000003 4.879699125 11.385964625000003
72 2 -2.0 11.385964625000003 1.6265663750000003 11.385964625000003
73 1 4.0 6.506265500000001 6.506265500000001 0.0
74 1 4.0 6.506265500000001 9.75939825 3.2531327500000007
75 1 4.0 9.75939825 6.506265500000001 3.2531327500000007
76 1 4.0 9.75939825 9.75939825 0.0
77 2 -2.0 8.132831875 8.132831875 4.879699125
78 2 -2.0 8.132831875 11.385964625000003 4.879699125
79 2 -2.0 8.132831875 11.385964625000003 1.6265663750000003
80 2 -2.0 8.132831875 8.132831875 1.6265663750000003
81 2 -2.0 11.385964625000003 8.132831875 1.6265663750000003
82 2 -2.0 11.385964625000003 11.385964625000003 1.6265663750000003
83 2 -2.0 11.385964625000003 11.385964625000003 4.879699125
84 2 -2.0 11.385964625000003 8.132831875 4.879699125
85 1 4.0 6.506265500000001 6.506265500000001 6.506265500000001
86 1 4.0 6.506265500000001 9.75939825 9.75939825
87 1 4.0 9.75939825 6.506265500000001 9.75939825
88 1 4.0 9.75939825 9.75939825 6.506265500000001
89 2 -2.0 8.132831875 8.132831875 11.385964625000003
90 2 -2.0 8.132831875 11.385964625000003 11.385964625000003
91 2 -2.0 8.132831875 11.385964625000003 8.132831875
92 2 -2.0 8.132831875 8.132831875 8.132831875
93 2 -2.0 11.385964625000003 8.132831875 8.132831875
94 2 -2.0 11.385964625000003 11.385964625000003 8.132831875
95 2 -2.0 11.385964625000003 11.385964625000003 11.385964625000003
96 2 -2.0 11.385964625000003 8.132831875 11.385964625000003
