 # "Ce32 O64"
  
          96  atoms
           2  atom types
 
0.0 11.700343000000002 xlo xhi
0.0 11.700343000000002 ylo yhi
0.0 11.700343000000002 zlo zhi
 
Masses
 
            1   140.11600000            # Ce
            2   15.99900000             # O
 
Atoms
 
1 1 4.0 0.0 0.0 0.0
2 1 4.0 0.0 2.9250857500000005 2.9250857500000005
3 1 4.0 2.9250857500000005 0.0 2.9250857500000005
4 1 4.0 2.9250857500000005 2.9250857500000005 0.0
5 2 -2.0 1.4625428750000002 1.4625428750000002 4.387628625
6 2 -2.0 1.4625428750000002 4.387628625 4.387628625
7 2 -2.0 1.4625428750000002 4.387628625 1.4625428750000002
8 2 -2.0 1.4625428750000002 1.4625428750000002 1.4625428750000002
9 2 -2.0 4.387628625 1.4625428750000002 1.4625428750000002
10 2 -2.0 4.387628625 4.387628625 1.4625428750000002
11 2 -2.0 4.387628625 4.387628625 4.387628625
12 2 -2.0 4.387628625 1.4625428750000002 4.387628625
13 1 4.0 0.0 0.0 5.850171500000001
14 1 4.0 0.0 2.9250857500000005 8.77525725
15 1 4.0 2.9250857500000005 11.700343000000002 8.77525725
16 1 4.0 2.9250857500000005 2.9250857500000005 5.850171500000001
17 2 -2.0 1.4625428750000002 1.4625428750000002 10.237800125000001
18 2 -2.0 1.4625428750000002 4.387628625 10.237800125000001
19 2 -2.0 1.4625428750000002 4.387628625 7.3127143750000005
20 2 -2.0 1.4625428750000002 1.4625428750000002 7.3127143750000005
21 2 -2.0 4.387628625 1.4625428750000002 7.3127143750000005
22 2 -2.0 4.387628625 4.387628625 7.3127143750000005
23 2 -2.0 4.387628625 4.387628625 10.237800125000001
24 2 -2.0 4.387628625 1.4625428750000002 10.237800125000001
25 1 4.0 0.0 5.850171500000001 0.0
26 1 4.0 0.0 8.77525725 2.9250857500000005
27 1 4.0 2.9250857500000005 5.850171500000001 2.9250857500000005
28 1 4.0 2.9250857500000005 8.77525725 0.0
29 2 -2.0 1.4625428750000002 7.3127143750000005 4.387628625
30 2 -2.0 1.4625428750000002 10.237800125000001 4.387628625
31 2 -2.0 1.4625428750000002 10.237800125000001 1.4625428750000002
32 2 -2.0 1.4625428750000002 7.3127143750000005 1.4625428750000002
33 2 -2.0 4.387628625 7.3127143750000005 1.4625428750000002
34 2 -2.0 4.387628625 10.237800125000001 1.4625428750000002
35 2 -2.0 4.387628625 10.237800125000001 4.387628625
36 2 -2.0 4.387628625 7.3127143750000005 4.387628625
37 1 4.0 0.0 5.850171500000001 5.850171500000001
38 1 4.0 0.0 8.77525725 8.77525725
39 1 4.0 2.9250857500000005 5.850171500000001 8.77525725
40 1 4.0 2.9250857500000005 8.77525725 5.850171500000001
41 2 -2.0 1.4625428750000002 7.3127143750000005 10.237800125000001
42 2 -2.0 1.4625428750000002 10.237800125000001 10.237800125000001
43 2 -2.0 1.4625428750000002 10.237800125000001 7.3127143750000005
44 2 -2.0 1.4625428750000002 7.3127143750000005 7.3127143750000005
45 2 -2.0 4.387628625 7.3127143750000005 7.3127143750000005
46 2 -2.0 4.387628625 10.237800125000001 7.3127143750000005
47 2 -2.0 4.387628625 10.237800125000001 10.237800125000001
48 2 -2.0 4.387628625 7.3127143750000005 10.237800125000001
49 1 4.0 5.850171500000001 0.0 0.0
50 1 4.0 5.850171500000001 2.9250857500000005 2.9250857500000005
51 1 4.0 8.77525725 0.0 2.9250857500000005
52 1 4.0 8.77525725 2.9250857500000005 0.0
53 2 -2.0 7.3127143750000005 1.4625428750000002 4.387628625
54 2 -2.0 7.3127143750000005 4.387628625 4.387628625
55 2 -2.0 7.3127143750000005 4.387628625 1.4625428750000002
56 2 -2.0 7.3127143750000005 1.4625428750000002 1.4625428750000002
57 2 -2.0 10.237800125000001 1.4625428750000002 1.4625428750000002
58 2 -2.0 10.237800125000001 4.387628625 1.4625428750000002
59 2 -2.0 10.237800125000001 4.387628625 4.387628625
60 2 -2.0 10.237800125000001 1.4625428750000002 4.387628625
61 1 4.0 5.850171500000001 0.0 5.850171500000001
62 1 4.0 5.850171500000001 2.9250857500000005 8.77525725
63 1 4.0 8.77525725 11.700343000000002 8.77525725
64 1 4.0 8.77525725 2.9250857500000005 5.850171500000001
65 2 -2.0 7.3127143750000005 1.4625428750000002 10.237800125000001
66 2 -2.0 7.3127143750000005 4.387628625 10.237800125000001
67 2 -2.0 7.3127143750000005 4.387628625 7.3127143750000005
68 2 -2.0 7.3127143750000005 1.4625428750000002 7.3127143750000005
69 2 -2.0 10.237800125000001 1.4625428750000002 7.3127143750000005
70 2 -2.0 10.237800125000001 4.387628625 7.3127143750000005
71 2 -2.0 10.237800125000001 4.387628625 10.237800125000001
72 2 -2.0 10.237800125000001 1.4625428750000002 10.237800125000001
73 1 4.0 5.850171500000001 5.850171500000001 0.0
74 1 4.0 5.850171500000001 8.77525725 2.9250857500000005
75 1 4.0 8.77525725 5.850171500000001 2.9250857500000005
76 1 4.0 8.77525725 8.77525725 0.0
77 2 -2.0 7.3127143750000005 7.3127143750000005 4.387628625
78 2 -2.0 7.3127143750000005 10.237800125000001 4.387628625
79 2 -2.0 7.3127143750000005 10.237800125000001 1.4625428750000002
80 2 -2.0 7.3127143750000005 7.3127143750000005 1.4625428750000002
81 2 -2.0 10.237800125000001 7.3127143750000005 1.4625428750000002
82 2 -2.0 10.237800125000001 10.237800125000001 1.4625428750000002
83 2 -2.0 10.237800125000001 10.237800125000001 4.387628625
84 2 -2.0 10.237800125000001 7.3127143750000005 4.387628625
85 1 4.0 5.850171500000001 5.850171500000001 5.850171500000001
86 1 4.0 5.850171500000001 8.77525725 8.77525725
87 1 4.0 8.77525725 5.850171500000001 8.77525725
88 1 4.0 8.77525725 8.77525725 5.850171500000001
89 2 -2.0 7.3127143750000005 7.3127143750000005 10.237800125000001
90 2 -2.0 7.3127143750000005 10.237800125000001 10.237800125000001
91 2 -2.0 7.3127143750000005 10.237800125000001 7.3127143750000005
92 2 -2.0 7.3127143750000005 7.3127143750000005 7.3127143750000005
93 2 -2.0 10.237800125000001 7.3127143750000005 7.3127143750000005
94 2 -2.0 10.237800125000001 10.237800125000001 7.3127143750000005
95 2 -2.0 10.237800125000001 10.237800125000001 10.237800125000001
96 2 -2.0 10.237800125000001 7.3127143750000005 10.237800125000001
