 # "Ce32 O64"
  
          96  atoms
           2  atom types
 
0.0 16.074303000000004 xlo xhi
0.0 16.074303000000004 ylo yhi
0.0 16.074303000000004 zlo zhi
 
Masses
 
            1   140.11600000            # Ce
            2   15.99900000             # O
 
Atoms
 
1 1 4.0 0.0 0.0 0.0
2 1 4.0 0.0 4.018575750000001 4.018575750000001
3 1 4.0 4.018575750000001 0.0 4.018575750000001
4 1 4.0 4.018575750000001 4.018575750000001 0.0
5 2 -2.0 2.0092878750000005 2.0092878750000005 6.027863625000001
6 2 -2.0 2.0092878750000005 6.027863625000001 6.027863625000001
7 2 -2.0 2.0092878750000005 6.027863625000001 2.0092878750000005
8 2 -2.0 2.0092878750000005 2.0092878750000005 2.0092878750000005
9 2 -2.0 6.027863625000001 2.0092878750000005 2.0092878750000005
10 2 -2.0 6.027863625000001 6.027863625000001 2.0092878750000005
11 2 -2.0 6.027863625000001 6.027863625000001 6.027863625000001
12 2 -2.0 6.027863625000001 2.0092878750000005 6.027863625000001
13 1 4.0 0.0 0.0 8.037151500000002
14 1 4.0 0.0 4.018575750000001 12.055727250000002
15 1 4.0 4.018575750000001 16.074303000000004 12.055727250000002
16 1 4.0 4.018575750000001 4.018575750000001 8.037151500000002
17 2 -2.0 2.0092878750000005 2.0092878750000005 14.065015125000006
18 2 -2.0 2.0092878750000005 6.027863625000001 14.065015125000006
19 2 -2.0 2.0092878750000005 6.027863625000001 10.046439375000004
20 2 -2.0 2.0092878750000005 2.0092878750000005 10.046439375000004
21 2 -2.0 6.027863625000001 2.0092878750000005 10.046439375000004
22 2 -2.0 6.027863625000001 6.027863625000001 10.046439375000004
23 2 -2.0 6.027863625000001 6.027863625000001 14.065015125000006
24 2 -2.0 6.027863625000001 2.0092878750000005 14.065015125000006
25 1 4.0 0.0 8.037151500000002 0.0
26 1 4.0 0.0 12.055727250000002 4.018575750000001
27 1 4.0 4.018575750000001 8.037151500000002 4.018575750000001
28 1 4.0 4.018575750000001 12.055727250000002 0.0
29 2 -2.0 2.0092878750000005 10.046439375000004 6.027863625000001
30 2 -2.0 2.0092878750000005 14.065015125000006 6.027863625000001
31 2 -2.0 2.0092878750000005 14.065015125000006 2.0092878750000005
32 2 -2.0 2.0092878750000005 10.046439375000004 2.0092878750000005
33 2 -2.0 6.027863625000001 10.046439375000004 2.0092878750000005
34 2 -2.0 6.027863625000001 14.065015125000006 2.0092878750000005
35 2 -2.0 6.027863625000001 14.065015125000006 6.027863625000001
36 2 -2.0 6.027863625000001 10.046439375000004 6.027863625000001
37 1 4.0 0.0 8.037151500000002 8.037151500000002
38 1 4.0 0.0 12.055727250000002 12.055727250000002
39 1 4.0 4.018575750000001 8.037151500000002 12.055727250000002
40 1 4.0 4.018575750000001 12.055727250000002 8.037151500000002
41 2 -2.0 2.0092878750000005 10.046439375000004 14.065015125000006
42 2 -2.0 2.0092878750000005 14.065015125000006 14.065015125000006
43 2 -2.0 2.0092878750000005 14.065015125000006 10.046439375000004
44 2 -2.0 2.0092878750000005 10.046439375000004 10.046439375000004
45 2 -2.0 6.027863625000001 10.046439375000004 10.046439375000004
46 2 -2.0 6.027863625000001 14.065015125000006 10.046439375000004
47 2 -2.0 6.027863625000001 14.065015125000006 14.065015125000006
48 2 -2.0 6.027863625000001 10.046439375000004 14.065015125000006
49 1 4.0 8.037151500000002 0.0 0.0
50 1 4.0 8.037151500000002 4.018575750000001 4.018575750000001
51 1 4.0 12.055727250000002 0.0 4.018575750000001
52 1 4.0 12.055727250000002 4.018575750000001 0.0
53 2 -2.0 10.046439375000004 2.0092878750000005 6.027863625000001
54 2 -2.0 10.046439375000004 6.027863625000001 6.027863625000001
55 2 -2.0 10.046439375000004 6.027863625000001 2.0092878750000005
56 2 -2.0 10.046439375000004 2.0092878750000005 2.0092878750000005
57 2 -2.0 14.065015125000006 2.0092878750000005 2.0092878750000005
58 2 -2.0 14.065015125000006 6.027863625000001 2.0092878750000005
59 2 -2.0 14.065015125000006 6.027863625000001 6.027863625000001
60 2 -2.0 14.065015125000006 2.0092878750000005 6.027863625000001
61 1 4.0 8.037151500000002 0.0 8.037151500000002
62 1 4.0 8.037151500000002 4.018575750000001 12.055727250000002
63 1 4.0 12.055727250000002 16.074303000000004 12.055727250000002
64 1 4.0 12.055727250000002 4.018575750000001 8.037151500000002
65 2 -2.0 10.046439375000004 2.0092878750000005 14.065015125000006
66 2 -2.0 10.046439375000004 6.027863625000001 14.065015125000006
67 2 -2.0 10.046439375000004 6.027863625000001 10.046439375000004
68 2 -2.0 10.046439375000004 2.0092878750000005 10.046439375000004
69 2 -2.0 14.065015125000006 2.0092878750000005 10.046439375000004
70 2 -2.0 14.065015125000006 6.027863625000001 10.046439375000004
71 2 -2.0 14.065015125000006 6.027863625000001 14.065015125000006
72 2 -2.0 14.065015125000006 2.0092878750000005 14.065015125000006
73 1 4.0 8.037151500000002 8.037151500000002 0.0
74 1 4.0 8.037151500000002 12.055727250000002 4.018575750000001
75 1 4.0 12.055727250000002 8.037151500000002 4.018575750000001
76 1 4.0 12.055727250000002 12.055727250000002 0.0
77 2 -2.0 10.046439375000004 10.046439375000004 6.027863625000001
78 2 -2.0 10.046439375000004 14.065015125000006 6.027863625000001
79 2 -2.0 10.046439375000004 14.065015125000006 2.0092878750000005
80 2 -2.0 10.046439375000004 10.046439375000004 2.0092878750000005
81 2 -2.0 14.065015125000006 10.046439375000004 2.0092878750000005
82 2 -2.0 14.065015125000006 14.065015125000006 2.0092878750000005
83 2 -2.0 14.065015125000006 14.065015125000006 6.027863625000001
84 2 -2.0 14.065015125000006 10.046439375000004 6.027863625000001
85 1 4.0 8.037151500000002 8.037151500000002 8.037151500000002
86 1 4.0 8.037151500000002 12.055727250000002 12.055727250000002
87 1 4.0 12.055727250000002 8.037151500000002 12.055727250000002
88 1 4.0 12.055727250000002 12.055727250000002 8.037151500000002
89 2 -2.0 10.046439375000004 10.046439375000004 14.065015125000006
90 2 -2.0 10.046439375000004 14.065015125000006 14.065015125000006
91 2 -2.0 10.046439375000004 14.065015125000006 10.046439375000004
92 2 -2.0 10.046439375000004 10.046439375000004 10.046439375000004
93 2 -2.0 14.065015125000006 10.046439375000004 10.046439375000004
94 2 -2.0 14.065015125000006 14.065015125000006 10.046439375000004
95 2 -2.0 14.065015125000006 14.065015125000006 14.065015125000006
96 2 -2.0 14.065015125000006 10.046439375000004 14.065015125000006
