 # "Ce32 O64"
  
          96  atoms
           2  atom types
 
0.0 13.887323000000004 xlo xhi
0.0 13.887323000000004 ylo yhi
0.0 13.887323000000004 zlo zhi
 
Masses
 
            1   140.11600000            # Ce
            2   15.99900000             # O
 
Atoms
 
1 1 4.0 0.0 0.0 0.0
2 1 4.0 0.0 3.471830750000001 3.471830750000001
3 1 4.0 3.471830750000001 0.0 3.471830750000001
4 1 4.0 3.471830750000001 3.471830750000001 0.0
5 2 -2.0 1.7359153750000005 1.7359153750000005 5.207746125000001
6 2 -2.0 1.7359153750000005 5.207746125000001 5.207746125000001
7 2 -2.0 1.7359153750000005 5.207746125000001 1.7359153750000005
8 2 -2.0 1.7359153750000005 1.7359153750000005 1.7359153750000005
9 2 -2.0 5.207746125000001 1.7359153750000005 1.7359153750000005
10 2 -2.0 5.207746125000001 5.207746125000001 1.7359153750000005
11 2 -2.0 5.207746125000001 5.207746125000001 5.207746125000001
12 2 -2.0 5.207746125000001 1.7359153750000005 5.207746125000001
13 1 4.0 0.0 0.0 6.943661500000002
14 1 4.0 0.0 3.471830750000001 10.415492250000002
15 1 4.0 3.471830750000001 13.887323000000004 10.415492250000002
16 1 4.0 3.471830750000001 3.471830750000001 6.943661500000002
17 2 -2.0 1.7359153750000005 1.7359153750000005 12.151407625000003
18 2 -2.0 1.7359153750000005 5.207746125000001 12.151407625000003
19 2 -2.0 1.7359153750000005 5.207746125000001 8.679576875000002
20 2 -2.0 1.7359153750000005 1.7359153750000005 8.679576875000002
21 2 -2.0 5.207746125000001 1.7359153750000005 8.679576875000002
22 2 -2.0 5.207746125000001 5.207746125000001 8.679576875000002
23 2 -2.0 5.207746125000001 5.207746125000001 12.151407625000003
24 2 -2.0 5.207746125000001 1.7359153750000005 12.151407625000003
25 1 4.0 0.0 6.943661500000002 0.0
26 1 4.0 0.0 10.415492250000002 3.471830750000001
27 1 4.0 3.471830750000001 6.943661500000002 3.471830750000001
28 1 4.0 3.471830750000001 10.415492250000002 0.0
29 2 -2.0 1.7359153750000005 8.679576875000002 5.207746125000001
30 2 -2.0 1.7359153750000005 12.151407625000003 5.207746125000001
31 2 -2.0 1.7359153750000005 12.151407625000003 1.7359153750000005
32 2 -2.0 1.7359153750000005 8.679576875000002 1.7359153750000005
33 2 -2.0 5.207746125000001 8.679576875000002 1.7359153750000005
34 2 -2.0 5.207746125000001 12.151407625000003 1.7359153750000005
35 2 -2.0 5.207746125000001 12.151407625000003 5.207746125000001
36 2 -2.0 5.207746125000001 8.679576875000002 5.207746125000001
37 1 4.0 0.0 6.943661500000002 6.943661500000002
38 1 4.0 0.0 10.415492250000002 10.415492250000002
39 1 4.0 3.471830750000001 6.943661500000002 10.415492250000002
40 1 4.0 3.471830750000001 10.415492250000002 6.943661500000002
41 2 -2.0 1.7359153750000005 8.679576875000002 12.151407625000003
42 2 -2.0 1.7359153750000005 12.151407625000003 12.151407625000003
43 2 -2.0 1.7359153750000005 12.151407625000003 8.679576875000002
44 2 -2.0 1.7359153750000005 8.679576875000002 8.679576875000002
45 2 -2.0 5.207746125000001 8.679576875000002 8.679576875000002
46 2 -2.0 5.207746125000001 12.151407625000003 8.679576875000002
47 2 -2.0 5.207746125000001 12.151407625000003 12.151407625000003
48 2 -2.0 5.207746125000001 8.679576875000002 12.151407625000003
49 1 4.0 6.943661500000002 0.0 0.0
50 1 4.0 6.943661500000002 3.471830750000001 3.471830750000001
51 1 4.0 10.415492250000002 0.0 3.471830750000001
52 1 4.0 10.415492250000002 3.471830750000001 0.0
53 2 -2.0 8.679576875000002 1.7359153750000005 5.207746125000001
54 2 -2.0 8.679576875000002 5.207746125000001 5.207746125000001
55 2 -2.0 8.679576875000002 5.207746125000001 1.7359153750000005
56 2 -2.0 8.679576875000002 1.7359153750000005 1.7359153750000005
57 2 -2.0 12.151407625000003 1.7359153750000005 1.7359153750000005
58 2 -2.0 12.151407625000003 5.207746125000001 1.7359153750000005
59 2 -2.0 12.151407625000003 5.207746125000001 5.207746125000001
60 2 -2.0 12.151407625000003 1.7359153750000005 5.207746125000001
61 1 4.0 6.943661500000002 0.0 6.943661500000002
62 1 4.0 6.943661500000002 3.471830750000001 10.415492250000002
63 1 4.0 10.415492250000002 13.887323000000004 10.415492250000002
64 1 4.0 10.415492250000002 3.471830750000001 6.943661500000002
65 2 -2.0 8.679576875000002 1.7359153750000005 12.151407625000003
66 2 -2.0 8.679576875000002 5.207746125000001 12.151407625000003
67 2 -2.0 8.679576875000002 5.207746125000001 8.679576875000002
68 2 -2.0 8.679576875000002 1.7359153750000005 8.679576875000002
69 2 -2.0 12.151407625000003 1.7359153750000005 8.679576875000002
70 2 -2.0 12.151407625000003 5.207746125000001 8.679576875000002
71 2 -2.0 12.151407625000003 5.207746125000001 12.151407625000003
72 2 -2.0 12.151407625000003 1.7359153750000005 12.151407625000003
73 1 4.0 6.943661500000002 6.943661500000002 0.0
74 1 4.0 6.943661500000002 10.415492250000002 3.471830750000001
75 1 4.0 10.415492250000002 6.943661500000002 3.471830750000001
76 1 4.0 10.415492250000002 10.415492250000002 0.0
77 2 -2.0 8.679576875000002 8.679576875000002 5.207746125000001
78 2 -2.0 8.679576875000002 12.151407625000003 5.207746125000001
79 2 -2.0 8.679576875000002 12.151407625000003 1.7359153750000005
80 2 -2.0 8.679576875000002 8.679576875000002 1.7359153750000005
81 2 -2.0 12.151407625000003 8.679576875000002 1.7359153750000005
82 2 -2.0 12.151407625000003 12.151407625000003 1.7359153750000005
83 2 -2.0 12.151407625000003 12.151407625000003 5.207746125000001
84 2 -2.0 12.151407625000003 8.679576875000002 5.207746125000001
85 1 4.0 6.943661500000002 6.943661500000002 6.943661500000002
86 1 4.0 6.943661500000002 10.415492250000002 10.415492250000002
87 1 4.0 10.415492250000002 6.943661500000002 10.415492250000002
88 1 4.0 10.415492250000002 10.415492250000002 6.943661500000002
89 2 -2.0 8.679576875000002 8.679576875000002 12.151407625000003
90 2 -2.0 8.679576875000002 12.151407625000003 12.151407625000003
91 2 -2.0 8.679576875000002 12.151407625000003 8.679576875000002
92 2 -2.0 8.679576875000002 8.679576875000002 8.679576875000002
93 2 -2.0 12.151407625000003 8.679576875000002 8.679576875000002
94 2 -2.0 12.151407625000003 12.151407625000003 8.679576875000002
95 2 -2.0 12.151407625000003 12.151407625000003 12.151407625000003
96 2 -2.0 12.151407625000003 8.679576875000002 12.151407625000003
