 # "Ce32 O64"
  
          96  atoms
           2  atom types
 
0.0 16.730397000000007 xlo xhi
0.0 16.730397000000007 ylo yhi
0.0 16.730397000000007 zlo zhi
 
Masses
 
            1   140.11600000            # Ce
            2   15.99900000             # O
 
Atoms
 
1 1 4.0 0.0 0.0 0.0
2 1 4.0 0.0 4.182599250000002 4.182599250000002
3 1 4.0 4.182599250000002 0.0 4.182599250000002
4 1 4.0 4.182599250000002 4.182599250000002 0.0
5 2 -2.0 2.091299625000001 2.091299625000001 6.273898875000001
6 2 -2.0 2.091299625000001 6.273898875000001 6.273898875000001
7 2 -2.0 2.091299625000001 6.273898875000001 2.091299625000001
8 2 -2.0 2.091299625000001 2.091299625000001 2.091299625000001
9 2 -2.0 6.273898875000001 2.091299625000001 2.091299625000001
10 2 -2.0 6.273898875000001 6.273898875000001 2.091299625000001
11 2 -2.0 6.273898875000001 6.273898875000001 6.273898875000001
12 2 -2.0 6.273898875000001 2.091299625000001 6.273898875000001
13 1 4.0 0.0 0.0 8.365198500000004
14 1 4.0 0.0 4.182599250000002 12.547797750000003
15 1 4.0 4.182599250000002 16.730397000000007 12.547797750000003
16 1 4.0 4.182599250000002 4.182599250000002 8.365198500000004
17 2 -2.0 2.091299625000001 2.091299625000001 14.639097375000006
18 2 -2.0 2.091299625000001 6.273898875000001 14.639097375000006
19 2 -2.0 2.091299625000001 6.273898875000001 10.456498125000003
20 2 -2.0 2.091299625000001 2.091299625000001 10.456498125000003
21 2 -2.0 6.273898875000001 2.091299625000001 10.456498125000003
22 2 -2.0 6.273898875000001 6.273898875000001 10.456498125000003
23 2 -2.0 6.273898875000001 6.273898875000001 14.639097375000006
24 2 -2.0 6.273898875000001 2.091299625000001 14.639097375000006
25 1 4.0 0.0 8.365198500000004 0.0
26 1 4.0 0.0 12.547797750000003 4.182599250000002
27 1 4.0 4.182599250000002 8.365198500000004 4.182599250000002
28 1 4.0 4.182599250000002 12.547797750000003 0.0
29 2 -2.0 2.091299625000001 10.456498125000003 6.273898875000001
30 2 -2.0 2.091299625000001 14.639097375000006 6.273898875000001
31 2 -2.0 2.091299625000001 14.639097375000006 2.091299625000001
32 2 -2.0 2.091299625000001 10.456498125000003 2.091299625000001
33 2 -2.0 6.273898875000001 10.456498125000003 2.091299625000001
34 2 -2.0 6.273898875000001 14.639097375000006 2.091299625000001
35 2 -2.0 6.273898875000001 14.639097375000006 6.273898875000001
36 2 -2.0 6.273898875000001 10.456498125000003 6.273898875000001
37 1 4.0 0.0 8.365198500000004 8.365198500000004
38 1 4.0 0.0 12.547797750000003 12.547797750000003
39 1 4.0 4.182599250000002 8.365198500000004 12.547797750000003
40 1 4.0 4.182599250000002 12.547797750000003 8.365198500000004
41 2 -2.0 2.091299625000001 10.456498125000003 14.639097375000006
42 2 -2.0 2.091299625000001 14.639097375000006 14.639097375000006
43 2 -2.0 2.091299625000001 14.639097375000006 10.456498125000003
44 2 -2.0 2.091299625000001 10.456498125000003 10.456498125000003
45 2 -2.0 6.273898875000001 10.456498125000003 10.456498125000003
46 2 -2.0 6.273898875000001 14.639097375000006 10.456498125000003
47 2 -2.0 6.273898875000001 14.639097375000006 14.639097375000006
48 2 -2.0 6.273898875000001 10.456498125000003 14.639097375000006
49 1 4.0 8.365198500000004 0.0 0.0
50 1 4.0 8.365198500000004 4.182599250000002 4.182599250000002
51 1 4.0 12.547797750000003 0.0 4.182599250000002
52 1 4.0 12.547797750000003 4.182599250000002 0.0
53 2 -2.0 10.456498125000003 2.091299625000001 6.273898875000001
54 2 -2.0 10.456498125000003 6.273898875000001 6.273898875000001
55 2 -2.0 10.456498125000003 6.273898875000001 2.091299625000001
56 2 -2.0 10.456498125000003 2.091299625000001 2.091299625000001
57 2 -2.0 14.639097375000006 2.091299625000001 2.091299625000001
58 2 -2.0 14.639097375000006 6.273898875000001 2.091299625000001
59 2 -2.0 14.639097375000006 6.273898875000001 6.273898875000001
60 2 -2.0 14.639097375000006 2.091299625000001 6.273898875000001
61 1 4.0 8.365198500000004 0.0 8.365198500000004
62 1 4.0 8.365198500000004 4.182599250000002 12.547797750000003
63 1 4.0 12.547797750000003 16.730397000000007 12.547797750000003
64 1 4.0 12.547797750000003 4.182599250000002 8.365198500000004
65 2 -2.0 10.456498125000003 2.091299625000001 14.639097375000006
66 2 -2.0 10.456498125000003 6.273898875000001 14.639097375000006
67 2 -2.0 10.456498125000003 6.273898875000001 10.456498125000003
68 2 -2.0 10.456498125000003 2.091299625000001 10.456498125000003
69 2 -2.0 14.639097375000006 2.091299625000001 10.456498125000003
70 2 -2.0 14.639097375000006 6.273898875000001 10.456498125000003
71 2 -2.0 14.639097375000006 6.273898875000001 14.639097375000006
72 2 -2.0 14.639097375000006 2.091299625000001 14.639097375000006
73 1 4.0 8.365198500000004 8.365198500000004 0.0
74 1 4.0 8.365198500000004 12.547797750000003 4.182599250000002
75 1 4.0 12.547797750000003 8.365198500000004 4.182599250000002
76 1 4.0 12.547797750000003 12.547797750000003 0.0
77 2 -2.0 10.456498125000003 10.456498125000003 6.273898875000001
78 2 -2.0 10.456498125000003 14.639097375000006 6.273898875000001
79 2 -2.0 10.456498125000003 14.639097375000006 2.091299625000001
80 2 -2.0 10.456498125000003 10.456498125000003 2.091299625000001
81 2 -2.0 14.639097375000006 10.456498125000003 2.091299625000001
82 2 -2.0 14.639097375000006 14.639097375000006 2.091299625000001
83 2 -2.0 14.639097375000006 14.639097375000006 6.273898875000001
84 2 -2.0 14.639097375000006 10.456498125000003 6.273898875000001
85 1 4.0 8.365198500000004 8.365198500000004 8.365198500000004
86 1 4.0 8.365198500000004 12.547797750000003 12.547797750000003
87 1 4.0 12.547797750000003 8.365198500000004 12.547797750000003
88 1 4.0 12.547797750000003 12.547797750000003 8.365198500000004
89 2 -2.0 10.456498125000003 10.456498125000003 14.639097375000006
90 2 -2.0 10.456498125000003 14.639097375000006 14.639097375000006
91 2 -2.0 10.456498125000003 14.639097375000006 10.456498125000003
92 2 -2.0 10.456498125000003 10.456498125000003 10.456498125000003
93 2 -2.0 14.639097375000006 10.456498125000003 10.456498125000003
94 2 -2.0 14.639097375000006 14.639097375000006 10.456498125000003
95 2 -2.0 14.639097375000006 14.639097375000006 14.639097375000006
96 2 -2.0 14.639097375000006 10.456498125000003 14.639097375000006
