 # "Ce32 O64"
  
          96  atoms
           2  atom types
 
0.0 10.606853000000001 xlo xhi
0.0 10.606853000000001 ylo yhi
0.0 10.606853000000001 zlo zhi
 
Masses
 
            1   140.11600000            # Ce
            2   15.99900000             # O
 
Atoms
 
1 1 4.0 0.0 0.0 0.0
2 1 4.0 0.0 2.6517132500000002 2.6517132500000002
3 1 4.0 2.6517132500000002 0.0 2.6517132500000002
4 1 4.0 2.6517132500000002 2.6517132500000002 0.0
5 2 -2.0 1.3258566250000001 1.3258566250000001 3.9775698749999995
6 2 -2.0 1.3258566250000001 3.9775698749999995 3.9775698749999995
7 2 -2.0 1.3258566250000001 3.9775698749999995 1.3258566250000001
8 2 -2.0 1.3258566250000001 1.3258566250000001 1.3258566250000001
9 2 -2.0 3.9775698749999995 1.3258566250000001 1.3258566250000001
10 2 -2.0 3.9775698749999995 3.9775698749999995 1.3258566250000001
11 2 -2.0 3.9775698749999995 3.9775698749999995 3.9775698749999995
12 2 -2.0 3.9775698749999995 1.3258566250000001 3.9775698749999995
13 1 4.0 0.0 0.0 5.3034265000000005
14 1 4.0 0.0 2.6517132500000002 7.955139749999999
15 1 4.0 2.6517132500000002 10.606853000000001 7.955139749999999
16 1 4.0 2.6517132500000002 2.6517132500000002 5.3034265000000005
17 2 -2.0 1.3258566250000001 1.3258566250000001 9.280996375
18 2 -2.0 1.3258566250000001 3.9775698749999995 9.280996375
19 2 -2.0 1.3258566250000001 3.9775698749999995 6.629283125
20 2 -2.0 1.3258566250000001 1.3258566250000001 6.629283125
21 2 -2.0 3.9775698749999995 1.3258566250000001 6.629283125
22 2 -2.0 3.9775698749999995 3.9775698749999995 6.629283125
23 2 -2.0 3.9775698749999995 3.9775698749999995 9.280996375
24 2 -2.0 3.9775698749999995 1.3258566250000001 9.280996375
25 1 4.0 0.0 5.3034265000000005 0.0
26 1 4.0 0.0 7.955139749999999 2.6517132500000002
27 1 4.0 2.6517132500000002 5.3034265000000005 2.6517132500000002
28 1 4.0 2.6517132500000002 7.955139749999999 0.0
29 2 -2.0 1.3258566250000001 6.629283125 3.9775698749999995
30 2 -2.0 1.3258566250000001 9.280996375 3.9775698749999995
31 2 -2.0 1.3258566250000001 9.280996375 1.3258566250000001
32 2 -2.0 1.3258566250000001 6.629283125 1.3258566250000001
33 2 -2.0 3.9775698749999995 6.629283125 1.3258566250000001
34 2 -2.0 3.9775698749999995 9.280996375 1.3258566250000001
35 2 -2.0 3.9775698749999995 9.280996375 3.9775698749999995
36 2 -2.0 3.9775698749999995 6.629283125 3.9775698749999995
37 1 4.0 0.0 5.3034265000000005 5.3034265000000005
38 1 4.0 0.0 7.955139749999999 7.955139749999999
39 1 4.0 2.6517132500000002 5.3034265000000005 7.955139749999999
40 1 4.0 2.6517132500000002 7.955139749999999 5.3034265000000005
41 2 -2.0 1.3258566250000001 6.629283125 9.280996375
42 2 -2.0 1.3258566250000001 9.280996375 9.280996375
43 2 -2.0 1.3258566250000001 9.280996375 6.629283125
44 2 -2.0 1.3258566250000001 6.629283125 6.629283125
45 2 -2.0 3.9775698749999995 6.629283125 6.629283125
46 2 -2.0 3.9775698749999995 9.280996375 6.629283125
47 2 -2.0 3.9775698749999995 9.280996375 9.280996375
48 2 -2.0 3.9775698749999995 6.629283125 9.280996375
49 1 4.0 5.3034265000000005 0.0 0.0
50 1 4.0 5.3034265000000005 2.6517132500000002 2.6517132500000002
51 1 4.0 7.955139749999999 0.0 2.6517132500000002
52 1 4.0 7.955139749999999 2.6517132500000002 0.0
53 2 -2.0 6.629283125 1.3258566250000001 3.9775698749999995
54 2 -2.0 6.629283125 3.9775698749999995 3.9775698749999995
55 2 -2.0 6.629283125 3.9775698749999995 1.3258566250000001
56 2 -2.0 6.629283125 1.3258566250000001 1.3258566250000001
57 2 -2.0 9.280996375 1.3258566250000001 1.3258566250000001
58 2 -2.0 9.280996375 3.9775698749999995 1.3258566250000001
59 2 -2.0 9.280996375 3.9775698749999995 3.9775698749999995
60 2 -2.0 9.280996375 1.3258566250000001 3.9775698749999995
61 1 4.0 5.3034265000000005 0.0 5.3034265000000005
62 1 4.0 5.3034265000000005 2.6517132500000002 7.955139749999999
63 1 4.0 7.955139749999999 10.606853000000001 7.955139749999999
64 1 4.0 7.955139749999999 2.6517132500000002 5.3034265000000005
65 2 -2.0 6.629283125 1.3258566250000001 9.280996375
66 2 -2.0 6.629283125 3.9775698749999995 9.280996375
67 2 -2.0 6.629283125 3.9775698749999995 6.629283125
68 2 -2.0 6.629283125 1.3258566250000001 6.629283125
69 2 -2.0 9.280996375 1.3258566250000001 6.629283125
70 2 -2.0 9.280996375 3.9775698749999995 6.629283125
71 2 -2.0 9.280996375 3.9775698749999995 9.280996375
72 2 -2.0 9.280996375 1.3258566250000001 9.280996375
73 1 4.0 5.3034265000000005 5.3034265000000005 0.0
74 1 4.0 5.3034265000000005 7.955139749999999 2.6517132500000002
75 1 4.0 7.955139749999999 5.3034265000000005 2.6517132500000002
76 1 4.0 7.955139749999999 7.955139749999999 0.0
77 2 -2.0 6.629283125 6.629283125 3.9775698749999995
78 2 -2.0 6.629283125 9.280996375 3.9775698749999995
79 2 -2.0 6.629283125 9.280996375 1.3258566250000001
80 2 -2.0 6.629283125 6.629283125 1.3258566250000001
81 2 -2.0 9.280996375 6.629283125 1.3258566250000001
82 2 -2.0 9.280996375 9.280996375 1.3258566250000001
83 2 -2.0 9.280996375 9.280996375 3.9775698749999995
84 2 -2.0 9.280996375 6.629283125 3.9775698749999995
85 1 4.0 5.3034265000000005 5.3034265000000005 5.3034265000000005
86 1 4.0 5.3034265000000005 7.955139749999999 7.955139749999999
87 1 4.0 7.955139749999999 5.3034265000000005 7.955139749999999
88 1 4.0 7.955139749999999 7.955139749999999 5.3034265000000005
89 2 -2.0 6.629283125 6.629283125 9.280996375
90 2 -2.0 6.629283125 9.280996375 9.280996375
91 2 -2.0 6.629283125 9.280996375 6.629283125
92 2 -2.0 6.629283125 6.629283125 6.629283125
93 2 -2.0 9.280996375 6.629283125 6.629283125
94 2 -2.0 9.280996375 9.280996375 6.629283125
95 2 -2.0 9.280996375 9.280996375 9.280996375
96 2 -2.0 9.280996375 6.629283125 9.280996375
