 # "Ce32 O64"
  
          96  atoms
           2  atom types
 
0.0 11.919041000000002 xlo xhi
0.0 11.919041000000002 ylo yhi
0.0 11.919041000000002 zlo zhi
 
Masses
 
            1   140.11600000            # Ce
            2   15.99900000             # O
 
Atoms
 
1 1 4.0 0.0 0.0 0.0
2 1 4.0 0.0 2.9797602500000004 2.9797602500000004
3 1 4.0 2.9797602500000004 0.0 2.9797602500000004
4 1 4.0 2.9797602500000004 2.9797602500000004 0.0
5 2 -2.0 1.4898801250000002 1.4898801250000002 4.469640375
6 2 -2.0 1.4898801250000002 4.469640375 4.469640375
7 2 -2.0 1.4898801250000002 4.469640375 1.4898801250000002
8 2 -2.0 1.4898801250000002 1.4898801250000002 1.4898801250000002
9 2 -2.0 4.469640375 1.4898801250000002 1.4898801250000002
10 2 -2.0 4.469640375 4.469640375 1.4898801250000002
11 2 -2.0 4.469640375 4.469640375 4.469640375
12 2 -2.0 4.469640375 1.4898801250000002 4.469640375
13 1 4.0 0.0 0.0 5.959520500000001
14 1 4.0 0.0 2.9797602500000004 8.93928075
15 1 4.0 2.9797602500000004 11.919041000000002 8.93928075
16 1 4.0 2.9797602500000004 2.9797602500000004 5.959520500000001
17 2 -2.0 1.4898801250000002 1.4898801250000002 10.429160875
18 2 -2.0 1.4898801250000002 4.469640375 10.429160875
19 2 -2.0 1.4898801250000002 4.469640375 7.449400625000001
20 2 -2.0 1.4898801250000002 1.4898801250000002 7.449400625000001
21 2 -2.0 4.469640375 1.4898801250000002 7.449400625000001
22 2 -2.0 4.469640375 4.469640375 7.449400625000001
23 2 -2.0 4.469640375 4.469640375 10.429160875
24 2 -2.0 4.469640375 1.4898801250000002 10.429160875
25 1 4.0 0.0 5.959520500000001 0.0
26 1 4.0 0.0 8.93928075 2.9797602500000004
27 1 4.0 2.9797602500000004 5.959520500000001 2.9797602500000004
28 1 4.0 2.9797602500000004 8.93928075 0.0
29 2 -2.0 1.4898801250000002 7.449400625000001 4.469640375
30 2 -2.0 1.4898801250000002 10.429160875 4.469640375
31 2 -2.0 1.4898801250000002 10.429160875 1.4898801250000002
32 2 -2.0 1.4898801250000002 7.449400625000001 1.4898801250000002
33 2 -2.0 4.469640375 7.449400625000001 1.4898801250000002
34 2 -2.0 4.469640375 10.429160875 1.4898801250000002
35 2 -2.0 4.469640375 10.429160875 4.469640375
36 2 -2.0 4.469640375 7.449400625000001 4.469640375
37 1 4.0 0.0 5.959520500000001 5.959520500000001
38 1 4.0 0.0 8.93928075 8.93928075
39 1 4.0 2.9797602500000004 5.959520500000001 8.93928075
40 1 4.0 2.9797602500000004 8.93928075 5.959520500000001
41 2 -2.0 1.4898801250000002 7.449400625000001 10.429160875
42 2 -2.0 1.4898801250000002 10.429160875 10.429160875
43 2 -2.0 1.4898801250000002 10.429160875 7.449400625000001
44 2 -2.0 1.4898801250000002 7.449400625000001 7.449400625000001
45 2 -2.0 4.469640375 7.449400625000001 7.449400625000001
46 2 -2.0 4.469640375 10.429160875 7.449400625000001
47 2 -2.0 4.469640375 10.429160875 10.429160875
48 2 -2.0 4.469640375 7.449400625000001 10.429160875
49 1 4.0 5.959520500000001 0.0 0.0
50 1 4.0 5.959520500000001 2.9797602500000004 2.9797602500000004
51 1 4.0 8.93928075 0.0 2.9797602500000004
52 1 4.0 8.93928075 2.9797602500000004 0.0
53 2 -2.0 7.449400625000001 1.4898801250000002 4.469640375
54 2 -2.0 7.449400625000001 4.469640375 4.469640375
55 2 -2.0 7.449400625000001 4.469640375 1.4898801250000002
56 2 -2.0 7.449400625000001 1.4898801250000002 1.4898801250000002
57 2 -2.0 10.429160875 1.4898801250000002 1.4898801250000002
58 2 -2.0 10.429160875 4.469640375 1.4898801250000002
59 2 -2.0 10.429160875 4.469640375 4.469640375
60 2 -2.0 10.429160875 1.4898801250000002 4.469640375
61 1 4.0 5.959520500000001 0.0 5.959520500000001
62 1 4.0 5.959520500000001 2.9797602500000004 8.93928075
63 1 4.0 8.93928075 11.919041000000002 8.93928075
64 1 4.0 8.93928075 2.9797602500000004 5.959520500000001
65 2 -2.0 7.449400625000001 1.4898801250000002 10.429160875
66 2 -2.0 7.449400625000001 4.469640375 10.429160875
67 2 -2.0 7.449400625000001 4.469640375 7.449400625000001
68 2 -2.0 7.449400625000001 1.4898801250000002 7.449400625000001
69 2 -2.0 10.429160875 1.4898801250000002 7.449400625000001
70 2 -2.0 10.429160875 4.469640375 7.449400625000001
71 2 -2.0 10.429160875 4.469640375 10.429160875
72 2 -2.0 10.429160875 1.4898801250000002 10.429160875
73 1 4.0 5.959520500000001 5.959520500000001 0.0
74 1 4.0 5.959520500000001 8.93928075 2.9797602500000004
75 1 4.0 8.93928075 5.959520500000001 2.9797602500000004
76 1 4.0 8.93928075 8.93928075 0.0
77 2 -2.0 7.449400625000001 7.449400625000001 4.469640375
78 2 -2.0 7.449400625000001 10.429160875 4.469640375
79 2 -2.0 7.449400625000001 10.429160875 1.4898801250000002
80 2 -2.0 7.449400625000001 7.449400625000001 1.4898801250000002
81 2 -2.0 10.429160875 7.449400625000001 1.4898801250000002
82 2 -2.0 10.429160875 10.429160875 1.4898801250000002
83 2 -2.0 10.429160875 10.429160875 4.469640375
84 2 -2.0 10.429160875 7.449400625000001 4.469640375
85 1 4.0 5.959520500000001 5.959520500000001 5.959520500000001
86 1 4.0 5.959520500000001 8.93928075 8.93928075
87 1 4.0 8.93928075 5.959520500000001 8.93928075
88 1 4.0 8.93928075 8.93928075 5.959520500000001
89 2 -2.0 7.449400625000001 7.449400625000001 10.429160875
90 2 -2.0 7.449400625000001 10.429160875 10.429160875
91 2 -2.0 7.449400625000001 10.429160875 7.449400625000001
92 2 -2.0 7.449400625000001 7.449400625000001 7.449400625000001
93 2 -2.0 10.429160875 7.449400625000001 7.449400625000001
94 2 -2.0 10.429160875 10.429160875 7.449400625000001
95 2 -2.0 10.429160875 10.429160875 10.429160875
96 2 -2.0 10.429160875 7.449400625000001 10.429160875
