 # "Ce32 O64"
  
          96  atoms
           2  atom types
 
0.0 15.090162000000005 xlo xhi
0.0 15.090162000000005 ylo yhi
0.0 15.090162000000005 zlo zhi
 
Masses
 
            1   140.11600000            # Ce
            2   15.99900000             # O
 
Atoms
 
1 1 4.0 0.0 0.0 0.0
2 1 4.0 0.0 3.772540500000001 3.772540500000001
3 1 4.0 3.772540500000001 0.0 3.772540500000001
4 1 4.0 3.772540500000001 3.772540500000001 0.0
5 2 -2.0 1.8862702500000006 1.8862702500000006 5.658810750000001
6 2 -2.0 1.8862702500000006 5.658810750000001 5.658810750000001
7 2 -2.0 1.8862702500000006 5.658810750000001 1.8862702500000006
8 2 -2.0 1.8862702500000006 1.8862702500000006 1.8862702500000006
9 2 -2.0 5.658810750000001 1.8862702500000006 1.8862702500000006
10 2 -2.0 5.658810750000001 5.658810750000001 1.8862702500000006
11 2 -2.0 5.658810750000001 5.658810750000001 5.658810750000001
12 2 -2.0 5.658810750000001 1.8862702500000006 5.658810750000001
13 1 4.0 0.0 0.0 7.545081000000002
14 1 4.0 0.0 3.772540500000001 11.317621500000001
15 1 4.0 3.772540500000001 15.090162000000005 11.317621500000001
16 1 4.0 3.772540500000001 3.772540500000001 7.545081000000002
17 2 -2.0 1.8862702500000006 1.8862702500000006 13.203891750000004
18 2 -2.0 1.8862702500000006 5.658810750000001 13.203891750000004
19 2 -2.0 1.8862702500000006 5.658810750000001 9.431351250000002
20 2 -2.0 1.8862702500000006 1.8862702500000006 9.431351250000002
21 2 -2.0 5.658810750000001 1.8862702500000006 9.431351250000002
22 2 -2.0 5.658810750000001 5.658810750000001 9.431351250000002
23 2 -2.0 5.658810750000001 5.658810750000001 13.203891750000004
24 2 -2.0 5.658810750000001 1.8862702500000006 13.203891750000004
25 1 4.0 0.0 7.545081000000002 0.0
26 1 4.0 0.0 11.317621500000001 3.772540500000001
27 1 4.0 3.772540500000001 7.545081000000002 3.772540500000001
28 1 4.0 3.772540500000001 11.317621500000001 0.0
29 2 -2.0 1.8862702500000006 9.431351250000002 5.658810750000001
30 2 -2.0 1.8862702500000006 13.203891750000004 5.658810750000001
31 2 -2.0 1.8862702500000006 13.203891750000004 1.8862702500000006
32 2 -2.0 1.8862702500000006 9.431351250000002 1.8862702500000006
33 2 -2.0 5.658810750000001 9.431351250000002 1.8862702500000006
34 2 -2.0 5.658810750000001 13.203891750000004 1.8862702500000006
35 2 -2.0 5.658810750000001 13.203891750000004 5.658810750000001
36 2 -2.0 5.658810750000001 9.431351250000002 5.658810750000001
37 1 4.0 0.0 7.545081000000002 7.545081000000002
38 1 4.0 0.0 11.317621500000001 11.317621500000001
39 1 4.0 3.772540500000001 7.545081000000002 11.317621500000001
40 1 4.0 3.772540500000001 11.317621500000001 7.545081000000002
41 2 -2.0 1.8862702500000006 9.431351250000002 13.203891750000004
42 2 -2.0 1.8862702500000006 13.203891750000004 13.203891750000004
43 2 -2.0 1.8862702500000006 13.203891750000004 9.431351250000002
44 2 -2.0 1.8862702500000006 9.431351250000002 9.431351250000002
45 2 -2.0 5.658810750000001 9.431351250000002 9.431351250000002
46 2 -2.0 5.658810750000001 13.203891750000004 9.431351250000002
47 2 -2.0 5.658810750000001 13.203891750000004 13.203891750000004
48 2 -2.0 5.658810750000001 9.431351250000002 13.203891750000004
49 1 4.0 7.545081000000002 0.0 0.0
50 1 4.0 7.545081000000002 3.772540500000001 3.772540500000001
51 1 4.0 11.317621500000001 0.0 3.772540500000001
52 1 4.0 11.317621500000001 3.772540500000001 0.0
53 2 -2.0 9.431351250000002 1.8862702500000006 5.658810750000001
54 2 -2.0 9.431351250000002 5.658810750000001 5.658810750000001
55 2 -2.0 9.431351250000002 5.658810750000001 1.8862702500000006
56 2 -2.0 9.431351250000002 1.8862702500000006 1.8862702500000006
57 2 -2.0 13.203891750000004 1.8862702500000006 1.8862702500000006
58 2 -2.0 13.203891750000004 5.658810750000001 1.8862702500000006
59 2 -2.0 13.203891750000004 5.658810750000001 5.658810750000001
60 2 -2.0 13.203891750000004 1.8862702500000006 5.658810750000001
61 1 4.0 7.545081000000002 0.0 7.545081000000002
62 1 4.0 7.545081000000002 3.772540500000001 11.317621500000001
63 1 4.0 11.317621500000001 15.090162000000005 11.317621500000001
64 1 4.0 11.317621500000001 3.772540500000001 7.545081000000002
65 2 -2.0 9.431351250000002 1.8862702500000006 13.203891750000004
66 2 -2.0 9.431351250000002 5.658810750000001 13.203891750000004
67 2 -2.0 9.431351250000002 5.658810750000001 9.431351250000002
68 2 -2.0 9.431351250000002 1.8862702500000006 9.431351250000002
69 2 -2.0 13.203891750000004 1.8862702500000006 9.431351250000002
70 2 -2.0 13.203891750000004 5.658810750000001 9.431351250000002
71 2 -2.0 13.203891750000004 5.658810750000001 13.203891750000004
72 2 -2.0 13.203891750000004 1.8862702500000006 13.203891750000004
73 1 4.0 7.545081000000002 7.545081000000002 0.0
74 1 4.0 7.545081000000002 11.317621500000001 3.772540500000001
75 1 4.0 11.317621500000001 7.545081000000002 3.772540500000001
76 1 4.0 11.317621500000001 11.317621500000001 0.0
77 2 -2.0 9.431351250000002 9.431351250000002 5.658810750000001
78 2 -2.0 9.431351250000002 13.203891750000004 5.658810750000001
79 2 -2.0 9.431351250000002 13.203891750000004 1.8862702500000006
80 2 -2.0 9.431351250000002 9.431351250000002 1.8862702500000006
81 2 -2.0 13.203891750000004 9.431351250000002 1.8862702500000006
82 2 -2.0 13.203891750000004 13.203891750000004 1.8862702500000006
83 2 -2.0 13.203891750000004 13.203891750000004 5.658810750000001
84 2 -2.0 13.203891750000004 9.431351250000002 5.658810750000001
85 1 4.0 7.545081000000002 7.545081000000002 7.545081000000002
86 1 4.0 7.545081000000002 11.317621500000001 11.317621500000001
87 1 4.0 11.317621500000001 7.545081000000002 11.317621500000001
88 1 4.0 11.317621500000001 11.317621500000001 7.545081000000002
89 2 -2.0 9.431351250000002 9.431351250000002 13.203891750000004
90 2 -2.0 9.431351250000002 13.203891750000004 13.203891750000004
91 2 -2.0 9.431351250000002 13.203891750000004 9.431351250000002
92 2 -2.0 9.431351250000002 9.431351250000002 9.431351250000002
93 2 -2.0 13.203891750000004 9.431351250000002 9.431351250000002
94 2 -2.0 13.203891750000004 13.203891750000004 9.431351250000002
95 2 -2.0 13.203891750000004 13.203891750000004 13.203891750000004
96 2 -2.0 13.203891750000004 9.431351250000002 13.203891750000004
