 # "Ce32 O64"
  
          96  atoms
           2  atom types
 
0.0 12.356437000000001 xlo xhi
0.0 12.356437000000001 ylo yhi
0.0 12.356437000000001 zlo zhi
 
Masses
 
            1   140.11600000            # Ce
            2   15.99900000             # O
 
Atoms
 
1 1 4.0 0.0 0.0 0.0
2 1 4.0 0.0 3.0891092500000004 3.0891092500000004
3 1 4.0 3.0891092500000004 0.0 3.0891092500000004
4 1 4.0 3.0891092500000004 3.0891092500000004 0.0
5 2 -2.0 1.5445546250000002 1.5445546250000002 4.633663875
6 2 -2.0 1.5445546250000002 4.633663875 4.633663875
7 2 -2.0 1.5445546250000002 4.633663875 1.5445546250000002
8 2 -2.0 1.5445546250000002 1.5445546250000002 1.5445546250000002
9 2 -2.0 4.633663875 1.5445546250000002 1.5445546250000002
10 2 -2.0 4.633663875 4.633663875 1.5445546250000002
11 2 -2.0 4.633663875 4.633663875 4.633663875
12 2 -2.0 4.633663875 1.5445546250000002 4.633663875
13 1 4.0 0.0 0.0 6.178218500000001
14 1 4.0 0.0 3.0891092500000004 9.26732775
15 1 4.0 3.0891092500000004 12.356437000000001 9.26732775
16 1 4.0 3.0891092500000004 3.0891092500000004 6.178218500000001
17 2 -2.0 1.5445546250000002 1.5445546250000002 10.811882375000001
18 2 -2.0 1.5445546250000002 4.633663875 10.811882375000001
19 2 -2.0 1.5445546250000002 4.633663875 7.722773125000001
20 2 -2.0 1.5445546250000002 1.5445546250000002 7.722773125000001
21 2 -2.0 4.633663875 1.5445546250000002 7.722773125000001
22 2 -2.0 4.633663875 4.633663875 7.722773125000001
23 2 -2.0 4.633663875 4.633663875 10.811882375000001
24 2 -2.0 4.633663875 1.5445546250000002 10.811882375000001
25 1 4.0 0.0 6.178218500000001 0.0
26 1 4.0 0.0 9.26732775 3.0891092500000004
27 1 4.0 3.0891092500000004 6.178218500000001 3.0891092500000004
28 1 4.0 3.0891092500000004 9.26732775 0.0
29 2 -2.0 1.5445546250000002 7.722773125000001 4.633663875
30 2 -2.0 1.5445546250000002 10.811882375000001 4.633663875
31 2 -2.0 1.5445546250000002 10.811882375000001 1.5445546250000002
32 2 -2.0 1.5445546250000002 7.722773125000001 1.5445546250000002
33 2 -2.0 4.633663875 7.722773125000001 1.5445546250000002
34 2 -2.0 4.633663875 10.811882375000001 1.5445546250000002
35 2 -2.0 4.633663875 10.811882375000001 4.633663875
36 2 -2.0 4.633663875 7.722773125000001 4.633663875
37 1 4.0 0.0 6.178218500000001 6.178218500000001
38 1 4.0 0.0 9.26732775 9.26732775
39 1 4.0 3.0891092500000004 6.178218500000001 9.26732775
40 1 4.0 3.0891092500000004 9.26732775 6.178218500000001
41 2 -2.0 1.5445546250000002 7.722773125000001 10.811882375000001
42 2 -2.0 1.5445546250000002 10.811882375000001 10.811882375000001
43 2 -2.0 1.5445546250000002 10.811882375000001 7.722773125000001
44 2 -2.0 1.5445546250000002 7.722773125000001 7.722773125000001
45 2 -2.0 4.633663875 7.722773125000001 7.722773125000001
46 2 -2.0 4.633663875 10.811882375000001 7.722773125000001
47 2 -2.0 4.633663875 10.811882375000001 10.811882375000001
48 2 -2.0 4.633663875 7.722773125000001 10.811882375000001
49 1 4.0 6.178218500000001 0.0 0.0
50 1 4.0 6.178218500000001 3.0891092500000004 3.0891092500000004
51 1 4.0 9.26732775 0.0 3.0891092500000004
52 1 4.0 9.26732775 3.0891092500000004 0.0
53 2 -2.0 7.722773125000001 1.5445546250000002 4.633663875
54 2 -2.0 7.722773125000001 4.633663875 4.633663875
55 2 -2.0 7.722773125000001 4.633663875 1.5445546250000002
56 2 -2.0 7.722773125000001 1.5445546250000002 1.5445546250000002
57 2 -2.0 10.811882375000001 1.5445546250000002 1.5445546250000002
58 2 -2.0 10.811882375000001 4.633663875 1.5445546250000002
59 2 -2.0 10.811882375000001 4.633663875 4.633663875
60 2 -2.0 10.811882375000001 1.5445546250000002 4.633663875
61 1 4.0 6.178218500000001 0.0 6.178218500000001
62 1 4.0 6.178218500000001 3.0891092500000004 9.26732775
63 1 4.0 9.26732775 12.356437000000001 9.26732775
64 1 4.0 9.26732775 3.0891092500000004 6.178218500000001
65 2 -2.0 7.722773125000001 1.5445546250000002 10.811882375000001
66 2 -2.0 7.722773125000001 4.633663875 10.811882375000001
67 2 -2.0 7.722773125000001 4.633663875 7.722773125000001
68 2 -2.0 7.722773125000001 1.5445546250000002 7.722773125000001
69 2 -2.0 10.811882375000001 1.5445546250000002 7.722773125000001
70 2 -2.0 10.811882375000001 4.633663875 7.722773125000001
71 2 -2.0 10.811882375000001 4.633663875 10.811882375000001
72 2 -2.0 10.811882375000001 1.5445546250000002 10.811882375000001
73 1 4.0 6.178218500000001 6.178218500000001 0.0
74 1 4.0 6.178218500000001 9.26732775 3.0891092500000004
75 1 4.0 9.26732775 6.178218500000001 3.0891092500000004
76 1 4.0 9.26732775 9.26732775 0.0
77 2 -2.0 7.722773125000001 7.722773125000001 4.633663875
78 2 -2.0 7.722773125000001 10.811882375000001 4.633663875
79 2 -2.0 7.722773125000001 10.811882375000001 1.5445546250000002
80 2 -2.0 7.722773125000001 7.722773125000001 1.5445546250000002
81 2 -2.0 10.811882375000001 7.722773125000001 1.5445546250000002
82 2 -2.0 10.811882375000001 10.811882375000001 1.5445546250000002
83 2 -2.0 10.811882375000001 10.811882375000001 4.633663875
84 2 -2.0 10.811882375000001 7.722773125000001 4.633663875
85 1 4.0 6.178218500000001 6.178218500000001 6.178218500000001
86 1 4.0 6.178218500000001 9.26732775 9.26732775
87 1 4.0 9.26732775 6.178218500000001 9.26732775
88 1 4.0 9.26732775 9.26732775 6.178218500000001
89 2 -2.0 7.722773125000001 7.722773125000001 10.811882375000001
90 2 -2.0 7.722773125000001 10.811882375000001 10.811882375000001
91 2 -2.0 7.722773125000001 10.811882375000001 7.722773125000001
92 2 -2.0 7.722773125000001 7.722773125000001 7.722773125000001
93 2 -2.0 10.811882375000001 7.722773125000001 7.722773125000001
94 2 -2.0 10.811882375000001 10.811882375000001 7.722773125000001
95 2 -2.0 10.811882375000001 10.811882375000001 10.811882375000001
96 2 -2.0 10.811882375000001 7.722773125000001 10.811882375000001
