 # "Ce32 O64"
  
          96  atoms
           2  atom types
 
0.0 16.183652000000006 xlo xhi
0.0 16.183652000000006 ylo yhi
0.0 16.183652000000006 zlo zhi
 
Masses
 
            1   140.11600000            # Ce
            2   15.99900000             # O
 
Atoms
 
1 1 4.0 0.0 0.0 0.0
2 1 4.0 0.0 4.045913000000001 4.045913000000001
3 1 4.0 4.045913000000001 0.0 4.045913000000001
4 1 4.0 4.045913000000001 4.045913000000001 0.0
5 2 -2.0 2.0229565000000007 2.0229565000000007 6.068869500000001
6 2 -2.0 2.0229565000000007 6.068869500000001 6.068869500000001
7 2 -2.0 2.0229565000000007 6.068869500000001 2.0229565000000007
8 2 -2.0 2.0229565000000007 2.0229565000000007 2.0229565000000007
9 2 -2.0 6.068869500000001 2.0229565000000007 2.0229565000000007
10 2 -2.0 6.068869500000001 6.068869500000001 2.0229565000000007
11 2 -2.0 6.068869500000001 6.068869500000001 6.068869500000001
12 2 -2.0 6.068869500000001 2.0229565000000007 6.068869500000001
13 1 4.0 0.0 0.0 8.091826000000003
14 1 4.0 0.0 4.045913000000001 12.137739000000002
15 1 4.0 4.045913000000001 16.183652000000006 12.137739000000002
16 1 4.0 4.045913000000001 4.045913000000001 8.091826000000003
17 2 -2.0 2.0229565000000007 2.0229565000000007 14.160695500000005
18 2 -2.0 2.0229565000000007 6.068869500000001 14.160695500000005
19 2 -2.0 2.0229565000000007 6.068869500000001 10.114782500000004
20 2 -2.0 2.0229565000000007 2.0229565000000007 10.114782500000004
21 2 -2.0 6.068869500000001 2.0229565000000007 10.114782500000004
22 2 -2.0 6.068869500000001 6.068869500000001 10.114782500000004
23 2 -2.0 6.068869500000001 6.068869500000001 14.160695500000005
24 2 -2.0 6.068869500000001 2.0229565000000007 14.160695500000005
25 1 4.0 0.0 8.091826000000003 0.0
26 1 4.0 0.0 12.137739000000002 4.045913000000001
27 1 4.0 4.045913000000001 8.091826000000003 4.045913000000001
28 1 4.0 4.045913000000001 12.137739000000002 0.0
29 2 -2.0 2.0229565000000007 10.114782500000004 6.068869500000001
30 2 -2.0 2.0229565000000007 14.160695500000005 6.068869500000001
31 2 -2.0 2.0229565000000007 14.160695500000005 2.0229565000000007
32 2 -2.0 2.0229565000000007 10.114782500000004 2.0229565000000007
33 2 -2.0 6.068869500000001 10.114782500000004 2.0229565000000007
34 2 -2.0 6.068869500000001 14.160695500000005 2.0229565000000007
35 2 -2.0 6.068869500000001 14.160695500000005 6.068869500000001
36 2 -2.0 6.068869500000001 10.114782500000004 6.068869500000001
37 1 4.0 0.0 8.091826000000003 8.091826000000003
38 1 4.0 0.0 12.137739000000002 12.137739000000002
39 1 4.0 4.045913000000001 8.091826000000003 12.137739000000002
40 1 4.0 4.045913000000001 12.137739000000002 8.091826000000003
41 2 -2.0 2.0229565000000007 10.114782500000004 14.160695500000005
42 2 -2.0 2.0229565000000007 14.160695500000005 14.160695500000005
43 2 -2.0 2.0229565000000007 14.160695500000005 10.114782500000004
44 2 -2.0 2.0229565000000007 10.114782500000004 10.114782500000004
45 2 -2.0 6.068869500000001 10.114782500000004 10.114782500000004
46 2 -2.0 6.068869500000001 14.160695500000005 10.114782500000004
47 2 -2.0 6.068869500000001 14.160695500000005 14.160695500000005
48 2 -2.0 6.068869500000001 10.114782500000004 14.160695500000005
49 1 4.0 8.091826000000003 0.0 0.0
50 1 4.0 8.091826000000003 4.045913000000001 4.045913000000001
51 1 4.0 12.137739000000002 0.0 4.045913000000001
52 1 4.0 12.137739000000002 4.045913000000001 0.0
53 2 -2.0 10.114782500000004 2.0229565000000007 6.068869500000001
54 2 -2.0 10.114782500000004 6.068869500000001 6.068869500000001
55 2 -2.0 10.114782500000004 6.068869500000001 2.0229565000000007
56 2 -2.0 10.114782500000004 2.0229565000000007 2.0229565000000007
57 2 -2.0 14.160695500000005 2.0229565000000007 2.0229565000000007
58 2 -2.0 14.160695500000005 6.068869500000001 2.0229565000000007
59 2 -2.0 14.160695500000005 6.068869500000001 6.068869500000001
60 2 -2.0 14.160695500000005 2.0229565000000007 6.068869500000001
61 1 4.0 8.091826000000003 0.0 8.091826000000003
62 1 4.0 8.091826000000003 4.045913000000001 12.137739000000002
63 1 4.0 12.137739000000002 16.183652000000006 12.137739000000002
64 1 4.0 12.137739000000002 4.045913000000001 8.091826000000003
65 2 -2.0 10.114782500000004 2.0229565000000007 14.160695500000005
66 2 -2.0 10.114782500000004 6.068869500000001 14.160695500000005
67 2 -2.0 10.114782500000004 6.068869500000001 10.114782500000004
68 2 -2.0 10.114782500000004 2.0229565000000007 10.114782500000004
69 2 -2.0 14.160695500000005 2.0229565000000007 10.114782500000004
70 2 -2.0 14.160695500000005 6.068869500000001 10.114782500000004
71 2 -2.0 14.160695500000005 6.068869500000001 14.160695500000005
72 2 -2.0 14.160695500000005 2.0229565000000007 14.160695500000005
73 1 4.0 8.091826000000003 8.091826000000003 0.0
74 1 4.0 8.091826000000003 12.137739000000002 4.045913000000001
75 1 4.0 12.137739000000002 8.091826000000003 4.045913000000001
76 1 4.0 12.137739000000002 12.137739000000002 0.0
77 2 -2.0 10.114782500000004 10.114782500000004 6.068869500000001
78 2 -2.0 10.114782500000004 14.160695500000005 6.068869500000001
79 2 -2.0 10.114782500000004 14.160695500000005 2.0229565000000007
80 2 -2.0 10.114782500000004 10.114782500000004 2.0229565000000007
81 2 -2.0 14.160695500000005 10.114782500000004 2.0229565000000007
82 2 -2.0 14.160695500000005 14.160695500000005 2.0229565000000007
83 2 -2.0 14.160695500000005 14.160695500000005 6.068869500000001
84 2 -2.0 14.160695500000005 10.114782500000004 6.068869500000001
85 1 4.0 8.091826000000003 8.091826000000003 8.091826000000003
86 1 4.0 8.091826000000003 12.137739000000002 12.137739000000002
87 1 4.0 12.137739000000002 8.091826000000003 12.137739000000002
88 1 4.0 12.137739000000002 12.137739000000002 8.091826000000003
89 2 -2.0 10.114782500000004 10.114782500000004 14.160695500000005
90 2 -2.0 10.114782500000004 14.160695500000005 14.160695500000005
91 2 -2.0 10.114782500000004 14.160695500000005 10.114782500000004
92 2 -2.0 10.114782500000004 10.114782500000004 10.114782500000004
93 2 -2.0 14.160695500000005 10.114782500000004 10.114782500000004
94 2 -2.0 14.160695500000005 14.160695500000005 10.114782500000004
95 2 -2.0 14.160695500000005 14.160695500000005 14.160695500000005
96 2 -2.0 14.160695500000005 10.114782500000004 14.160695500000005
