 # "Ce32 O64"
  
          96  atoms
           2  atom types
 
0.0 12.575135000000003 xlo xhi
0.0 12.575135000000003 ylo yhi
0.0 12.575135000000003 zlo zhi
 
Masses
 
            1   140.11600000            # Ce
            2   15.99900000             # O
 
Atoms
 
1 1 4.0 0.0 0.0 0.0
2 1 4.0 0.0 3.1437837500000008 3.1437837500000008
3 1 4.0 3.1437837500000008 0.0 3.1437837500000008
4 1 4.0 3.1437837500000008 3.1437837500000008 0.0
5 2 -2.0 1.5718918750000004 1.5718918750000004 4.715675625
6 2 -2.0 1.5718918750000004 4.715675625 4.715675625
7 2 -2.0 1.5718918750000004 4.715675625 1.5718918750000004
8 2 -2.0 1.5718918750000004 1.5718918750000004 1.5718918750000004
9 2 -2.0 4.715675625 1.5718918750000004 1.5718918750000004
10 2 -2.0 4.715675625 4.715675625 1.5718918750000004
11 2 -2.0 4.715675625 4.715675625 4.715675625
12 2 -2.0 4.715675625 1.5718918750000004 4.715675625
13 1 4.0 0.0 0.0 6.2875675000000015
14 1 4.0 0.0 3.1437837500000008 9.43135125
15 1 4.0 3.1437837500000008 12.575135000000003 9.43135125
16 1 4.0 3.1437837500000008 3.1437837500000008 6.2875675000000015
17 2 -2.0 1.5718918750000004 1.5718918750000004 11.003243125000003
18 2 -2.0 1.5718918750000004 4.715675625 11.003243125000003
19 2 -2.0 1.5718918750000004 4.715675625 7.859459375000001
20 2 -2.0 1.5718918750000004 1.5718918750000004 7.859459375000001
21 2 -2.0 4.715675625 1.5718918750000004 7.859459375000001
22 2 -2.0 4.715675625 4.715675625 7.859459375000001
23 2 -2.0 4.715675625 4.715675625 11.003243125000003
24 2 -2.0 4.715675625 1.5718918750000004 11.003243125000003
25 1 4.0 0.0 6.2875675000000015 0.0
26 1 4.0 0.0 9.43135125 3.1437837500000008
27 1 4.0 3.1437837500000008 6.2875675000000015 3.1437837500000008
28 1 4.0 3.1437837500000008 9.43135125 0.0
29 2 -2.0 1.5718918750000004 7.859459375000001 4.715675625
30 2 -2.0 1.5718918750000004 11.003243125000003 4.715675625
31 2 -2.0 1.5718918750000004 11.003243125000003 1.5718918750000004
32 2 -2.0 1.5718918750000004 7.859459375000001 1.5718918750000004
33 2 -2.0 4.715675625 7.859459375000001 1.5718918750000004
34 2 -2.0 4.715675625 11.003243125000003 1.5718918750000004
35 2 -2.0 4.715675625 11.003243125000003 4.715675625
36 2 -2.0 4.715675625 7.859459375000001 4.715675625
37 1 4.0 0.0 6.2875675000000015 6.2875675000000015
38 1 4.0 0.0 9.43135125 9.43135125
39 1 4.0 3.1437837500000008 6.2875675000000015 9.43135125
40 1 4.0 3.1437837500000008 9.43135125 6.2875675000000015
41 2 -2.0 1.5718918750000004 7.859459375000001 11.003243125000003
42 2 -2.0 1.5718918750000004 11.003243125000003 11.003243125000003
43 2 -2.0 1.5718918750000004 11.003243125000003 7.859459375000001
44 2 -2.0 1.5718918750000004 7.859459375000001 7.859459375000001
45 2 -2.0 4.715675625 7.859459375000001 7.859459375000001
46 2 -2.0 4.715675625 11.003243125000003 7.859459375000001
47 2 -2.0 4.715675625 11.003243125000003 11.003243125000003
48 2 -2.0 4.715675625 7.859459375000001 11.003243125000003
49 1 4.0 6.2875675000000015 0.0 0.0
50 1 4.0 6.2875675000000015 3.1437837500000008 3.1437837500000008
51 1 4.0 9.43135125 0.0 3.1437837500000008
52 1 4.0 9.43135125 3.1437837500000008 0.0
53 2 -2.0 7.859459375000001 1.5718918750000004 4.715675625
54 2 -2.0 7.859459375000001 4.715675625 4.715675625
55 2 -2.0 7.859459375000001 4.715675625 1.5718918750000004
56 2 -2.0 7.859459375000001 1.5718918750000004 1.5718918750000004
57 2 -2.0 11.003243125000003 1.5718918750000004 1.5718918750000004
58 2 -2.0 11.003243125000003 4.715675625 1.5718918750000004
59 2 -2.0 11.003243125000003 4.715675625 4.715675625
60 2 -2.0 11.003243125000003 1.5718918750000004 4.715675625
61 1 4.0 6.2875675000000015 0.0 6.2875675000000015
62 1 4.0 6.2875675000000015 3.1437837500000008 9.43135125
63 1 4.0 9.43135125 12.575135000000003 9.43135125
64 1 4.0 9.43135125 3.1437837500000008 6.2875675000000015
65 2 -2.0 7.859459375000001 1.5718918750000004 11.003243125000003
66 2 -2.0 7.859459375000001 4.715675625 11.003243125000003
67 2 -2.0 7.859459375000001 4.715675625 7.859459375000001
68 2 -2.0 7.859459375000001 1.5718918750000004 7.859459375000001
69 2 -2.0 11.003243125000003 1.5718918750000004 7.859459375000001
70 2 -2.0 11.003243125000003 4.715675625 7.859459375000001
71 2 -2.0 11.003243125000003 4.715675625 11.003243125000003
72 2 -2.0 11.003243125000003 1.5718918750000004 11.003243125000003
73 1 4.0 6.2875675000000015 6.2875675000000015 0.0
74 1 4.0 6.2875675000000015 9.43135125 3.1437837500000008
75 1 4.0 9.43135125 6.2875675000000015 3.1437837500000008
76 1 4.0 9.43135125 9.43135125 0.0
77 2 -2.0 7.859459375000001 7.859459375000001 4.715675625
78 2 -2.0 7.859459375000001 11.003243125000003 4.715675625
79 2 -2.0 7.859459375000001 11.003243125000003 1.5718918750000004
80 2 -2.0 7.859459375000001 7.859459375000001 1.5718918750000004
81 2 -2.0 11.003243125000003 7.859459375000001 1.5718918750000004
82 2 -2.0 11.003243125000003 11.003243125000003 1.5718918750000004
83 2 -2.0 11.003243125000003 11.003243125000003 4.715675625
84 2 -2.0 11.003243125000003 7.859459375000001 4.715675625
85 1 4.0 6.2875675000000015 6.2875675000000015 6.2875675000000015
86 1 4.0 6.2875675000000015 9.43135125 9.43135125
87 1 4.0 9.43135125 6.2875675000000015 9.43135125
88 1 4.0 9.43135125 9.43135125 6.2875675000000015
89 2 -2.0 7.859459375000001 7.859459375000001 11.003243125000003
90 2 -2.0 7.859459375000001 11.003243125000003 11.003243125000003
91 2 -2.0 7.859459375000001 11.003243125000003 7.859459375000001
92 2 -2.0 7.859459375000001 7.859459375000001 7.859459375000001
93 2 -2.0 11.003243125000003 7.859459375000001 7.859459375000001
94 2 -2.0 11.003243125000003 11.003243125000003 7.859459375000001
95 2 -2.0 11.003243125000003 11.003243125000003 11.003243125000003
96 2 -2.0 11.003243125000003 7.859459375000001 11.003243125000003
