 # "Ce32 O64"
  
          96  atoms
           2  atom types
 
0.0 13.340578000000002 xlo xhi
0.0 13.340578000000002 ylo yhi
0.0 13.340578000000002 zlo zhi
 
Masses
 
            1   140.11600000            # Ce
            2   15.99900000             # O
 
Atoms
 
1 1 4.0 0.0 0.0 0.0
2 1 4.0 0.0 3.3351445000000006 3.3351445000000006
3 1 4.0 3.3351445000000006 0.0 3.3351445000000006
4 1 4.0 3.3351445000000006 3.3351445000000006 0.0
5 2 -2.0 1.6675722500000003 1.6675722500000003 5.00271675
6 2 -2.0 1.6675722500000003 5.00271675 5.00271675
7 2 -2.0 1.6675722500000003 5.00271675 1.6675722500000003
8 2 -2.0 1.6675722500000003 1.6675722500000003 1.6675722500000003
9 2 -2.0 5.00271675 1.6675722500000003 1.6675722500000003
10 2 -2.0 5.00271675 5.00271675 1.6675722500000003
11 2 -2.0 5.00271675 5.00271675 5.00271675
12 2 -2.0 5.00271675 1.6675722500000003 5.00271675
13 1 4.0 0.0 0.0 6.670289000000001
14 1 4.0 0.0 3.3351445000000006 10.0054335
15 1 4.0 3.3351445000000006 13.340578000000002 10.0054335
16 1 4.0 3.3351445000000006 3.3351445000000006 6.670289000000001
17 2 -2.0 1.6675722500000003 1.6675722500000003 11.673005750000003
18 2 -2.0 1.6675722500000003 5.00271675 11.673005750000003
19 2 -2.0 1.6675722500000003 5.00271675 8.337861250000001
20 2 -2.0 1.6675722500000003 1.6675722500000003 8.337861250000001
21 2 -2.0 5.00271675 1.6675722500000003 8.337861250000001
22 2 -2.0 5.00271675 5.00271675 8.337861250000001
23 2 -2.0 5.00271675 5.00271675 11.673005750000003
24 2 -2.0 5.00271675 1.6675722500000003 11.673005750000003
25 1 4.0 0.0 6.670289000000001 0.0
26 1 4.0 0.0 10.0054335 3.3351445000000006
27 1 4.0 3.3351445000000006 6.670289000000001 3.3351445000000006
28 1 4.0 3.3351445000000006 10.0054335 0.0
29 2 -2.0 1.6675722500000003 8.337861250000001 5.00271675
30 2 -2.0 1.6675722500000003 11.673005750000003 5.00271675
31 2 -2.0 1.6675722500000003 11.673005750000003 1.6675722500000003
32 2 -2.0 1.6675722500000003 8.337861250000001 1.6675722500000003
33 2 -2.0 5.00271675 8.337861250000001 1.6675722500000003
34 2 -2.0 5.00271675 11.673005750000003 1.6675722500000003
35 2 -2.0 5.00271675 11.673005750000003 5.00271675
36 2 -2.0 5.00271675 8.337861250000001 5.00271675
37 1 4.0 0.0 6.670289000000001 6.670289000000001
38 1 4.0 0.0 10.0054335 10.0054335
39 1 4.0 3.3351445000000006 6.670289000000001 10.0054335
40 1 4.0 3.3351445000000006 10.0054335 6.670289000000001
41 2 -2.0 1.6675722500000003 8.337861250000001 11.673005750000003
42 2 -2.0 1.6675722500000003 11.673005750000003 11.673005750000003
43 2 -2.0 1.6675722500000003 11.673005750000003 8.337861250000001
44 2 -2.0 1.6675722500000003 8.337861250000001 8.337861250000001
45 2 -2.0 5.00271675 8.337861250000001 8.337861250000001
46 2 -2.0 5.00271675 11.673005750000003 8.337861250000001
47 2 -2.0 5.00271675 11.673005750000003 11.673005750000003
48 2 -2.0 5.00271675 8.337861250000001 11.673005750000003
49 1 4.0 6.670289000000001 0.0 0.0
50 1 4.0 6.670289000000001 3.3351445000000006 3.3351445000000006
51 1 4.0 10.0054335 0.0 3.3351445000000006
52 1 4.0 10.0054335 3.3351445000000006 0.0
53 2 -2.0 8.337861250000001 1.6675722500000003 5.00271675
54 2 -2.0 8.337861250000001 5.00271675 5.00271675
55 2 -2.0 8.337861250000001 5.00271675 1.6675722500000003
56 2 -2.0 8.337861250000001 1.6675722500000003 1.6675722500000003
57 2 -2.0 11.673005750000003 1.6675722500000003 1.6675722500000003
58 2 -2.0 11.673005750000003 5.00271675 1.6675722500000003
59 2 -2.0 11.673005750000003 5.00271675 5.00271675
60 2 -2.0 11.673005750000003 1.6675722500000003 5.00271675
61 1 4.0 6.670289000000001 0.0 6.670289000000001
62 1 4.0 6.670289000000001 3.3351445000000006 10.0054335
63 1 4.0 10.0054335 13.340578000000002 10.0054335
64 1 4.0 10.0054335 3.3351445000000006 6.670289000000001
65 2 -2.0 8.337861250000001 1.6675722500000003 11.673005750000003
66 2 -2.0 8.337861250000001 5.00271675 11.673005750000003
67 2 -2.0 8.337861250000001 5.00271675 8.337861250000001
68 2 -2.0 8.337861250000001 1.6675722500000003 8.337861250000001
69 2 -2.0 11.673005750000003 1.6675722500000003 8.337861250000001
70 2 -2.0 11.673005750000003 5.00271675 8.337861250000001
71 2 -2.0 11.673005750000003 5.00271675 11.673005750000003
72 2 -2.0 11.673005750000003 1.6675722500000003 11.673005750000003
73 1 4.0 6.670289000000001 6.670289000000001 0.0
74 1 4.0 6.670289000000001 10.0054335 3.3351445000000006
75 1 4.0 10.0054335 6.670289000000001 3.3351445000000006
76 1 4.0 10.0054335 10.0054335 0.0
77 2 -2.0 8.337861250000001 8.337861250000001 5.00271675
78 2 -2.0 8.337861250000001 11.673005750000003 5.00271675
79 2 -2.0 8.337861250000001 11.673005750000003 1.6675722500000003
80 2 -2.0 8.337861250000001 8.337861250000001 1.6675722500000003
81 2 -2.0 11.673005750000003 8.337861250000001 1.6675722500000003
82 2 -2.0 11.673005750000003 11.673005750000003 1.6675722500000003
83 2 -2.0 11.673005750000003 11.673005750000003 5.00271675
84 2 -2.0 11.673005750000003 8.337861250000001 5.00271675
85 1 4.0 6.670289000000001 6.670289000000001 6.670289000000001
86 1 4.0 6.670289000000001 10.0054335 10.0054335
87 1 4.0 10.0054335 6.670289000000001 10.0054335
88 1 4.0 10.0054335 10.0054335 6.670289000000001
89 2 -2.0 8.337861250000001 8.337861250000001 11.673005750000003
90 2 -2.0 8.337861250000001 11.673005750000003 11.673005750000003
91 2 -2.0 8.337861250000001 11.673005750000003 8.337861250000001
92 2 -2.0 8.337861250000001 8.337861250000001 8.337861250000001
93 2 -2.0 11.673005750000003 8.337861250000001 8.337861250000001
94 2 -2.0 11.673005750000003 11.673005750000003 8.337861250000001
95 2 -2.0 11.673005750000003 11.673005750000003 11.673005750000003
96 2 -2.0 11.673005750000003 8.337861250000001 11.673005750000003
