 # "Ce32 O64"
  
          96  atoms
           2  atom types
 
0.0 15.855605000000006 xlo xhi
0.0 15.855605000000006 ylo yhi
0.0 15.855605000000006 zlo zhi
 
Masses
 
            1   140.11600000            # Ce
            2   15.99900000             # O
 
Atoms
 
1 1 4.0 0.0 0.0 0.0
2 1 4.0 0.0 3.9639012500000015 3.9639012500000015
3 1 4.0 3.9639012500000015 0.0 3.9639012500000015
4 1 4.0 3.9639012500000015 3.9639012500000015 0.0
5 2 -2.0 1.9819506250000007 1.9819506250000007 5.945851875000001
6 2 -2.0 1.9819506250000007 5.945851875000001 5.945851875000001
7 2 -2.0 1.9819506250000007 5.945851875000001 1.9819506250000007
8 2 -2.0 1.9819506250000007 1.9819506250000007 1.9819506250000007
9 2 -2.0 5.945851875000001 1.9819506250000007 1.9819506250000007
10 2 -2.0 5.945851875000001 5.945851875000001 1.9819506250000007
11 2 -2.0 5.945851875000001 5.945851875000001 5.945851875000001
12 2 -2.0 5.945851875000001 1.9819506250000007 5.945851875000001
13 1 4.0 0.0 0.0 7.927802500000003
14 1 4.0 0.0 3.9639012500000015 11.891703750000001
15 1 4.0 3.9639012500000015 15.855605000000006 11.891703750000001
16 1 4.0 3.9639012500000015 3.9639012500000015 7.927802500000003
17 2 -2.0 1.9819506250000007 1.9819506250000007 13.873654375000005
18 2 -2.0 1.9819506250000007 5.945851875000001 13.873654375000005
19 2 -2.0 1.9819506250000007 5.945851875000001 9.909753125000003
20 2 -2.0 1.9819506250000007 1.9819506250000007 9.909753125000003
21 2 -2.0 5.945851875000001 1.9819506250000007 9.909753125000003
22 2 -2.0 5.945851875000001 5.945851875000001 9.909753125000003
23 2 -2.0 5.945851875000001 5.945851875000001 13.873654375000005
24 2 -2.0 5.945851875000001 1.9819506250000007 13.873654375000005
25 1 4.0 0.0 7.927802500000003 0.0
26 1 4.0 0.0 11.891703750000001 3.9639012500000015
27 1 4.0 3.9639012500000015 7.927802500000003 3.9639012500000015
28 1 4.0 3.9639012500000015 11.891703750000001 0.0
29 2 -2.0 1.9819506250000007 9.909753125000003 5.945851875000001
30 2 -2.0 1.9819506250000007 13.873654375000005 5.945851875000001
31 2 -2.0 1.9819506250000007 13.873654375000005 1.9819506250000007
32 2 -2.0 1.9819506250000007 9.909753125000003 1.9819506250000007
33 2 -2.0 5.945851875000001 9.909753125000003 1.9819506250000007
34 2 -2.0 5.945851875000001 13.873654375000005 1.9819506250000007
35 2 -2.0 5.945851875000001 13.873654375000005 5.945851875000001
36 2 -2.0 5.945851875000001 9.909753125000003 5.945851875000001
37 1 4.0 0.0 7.927802500000003 7.927802500000003
38 1 4.0 0.0 11.891703750000001 11.891703750000001
39 1 4.0 3.9639012500000015 7.927802500000003 11.891703750000001
40 1 4.0 3.9639012500000015 11.891703750000001 7.927802500000003
41 2 -2.0 1.9819506250000007 9.909753125000003 13.873654375000005
42 2 -2.0 1.9819506250000007 13.873654375000005 13.873654375000005
43 2 -2.0 1.9819506250000007 13.873654375000005 9.909753125000003
44 2 -2.0 1.9819506250000007 9.909753125000003 9.909753125000003
45 2 -2.0 5.945851875000001 9.909753125000003 9.909753125000003
46 2 -2.0 5.945851875000001 13.873654375000005 9.909753125000003
47 2 -2.0 5.945851875000001 13.873654375000005 13.873654375000005
48 2 -2.0 5.945851875000001 9.909753125000003 13.873654375000005
49 1 4.0 7.927802500000003 0.0 0.0
50 1 4.0 7.927802500000003 3.9639012500000015 3.9639012500000015
51 1 4.0 11.891703750000001 0.0 3.9639012500000015
52 1 4.0 11.891703750000001 3.9639012500000015 0.0
53 2 -2.0 9.909753125000003 1.9819506250000007 5.945851875000001
54 2 -2.0 9.909753125000003 5.945851875000001 5.945851875000001
55 2 -2.0 9.909753125000003 5.945851875000001 1.9819506250000007
56 2 -2.0 9.909753125000003 1.9819506250000007 1.9819506250000007
57 2 -2.0 13.873654375000005 1.9819506250000007 1.9819506250000007
58 2 -2.0 13.873654375000005 5.945851875000001 1.9819506250000007
59 2 -2.0 13.873654375000005 5.945851875000001 5.945851875000001
60 2 -2.0 13.873654375000005 1.9819506250000007 5.945851875000001
61 1 4.0 7.927802500000003 0.0 7.927802500000003
62 1 4.0 7.927802500000003 3.9639012500000015 11.891703750000001
63 1 4.0 11.891703750000001 15.855605000000006 11.891703750000001
64 1 4.0 11.891703750000001 3.9639012500000015 7.927802500000003
65 2 -2.0 9.909753125000003 1.9819506250000007 13.873654375000005
66 2 -2.0 9.909753125000003 5.945851875000001 13.873654375000005
67 2 -2.0 9.909753125000003 5.945851875000001 9.909753125000003
68 2 -2.0 9.909753125000003 1.9819506250000007 9.909753125000003
69 2 -2.0 13.873654375000005 1.9819506250000007 9.909753125000003
70 2 -2.0 13.873654375000005 5.945851875000001 9.909753125000003
71 2 -2.0 13.873654375000005 5.945851875000001 13.873654375000005
72 2 -2.0 13.873654375000005 1.9819506250000007 13.873654375000005
73 1 4.0 7.927802500000003 7.927802500000003 0.0
74 1 4.0 7.927802500000003 11.891703750000001 3.9639012500000015
75 1 4.0 11.891703750000001 7.927802500000003 3.9639012500000015
76 1 4.0 11.891703750000001 11.891703750000001 0.0
77 2 -2.0 9.909753125000003 9.909753125000003 5.945851875000001
78 2 -2.0 9.909753125000003 13.873654375000005 5.945851875000001
79 2 -2.0 9.909753125000003 13.873654375000005 1.9819506250000007
80 2 -2.0 9.909753125000003 9.909753125000003 1.9819506250000007
81 2 -2.0 13.873654375000005 9.909753125000003 1.9819506250000007
82 2 -2.0 13.873654375000005 13.873654375000005 1.9819506250000007
83 2 -2.0 13.873654375000005 13.873654375000005 5.945851875000001
84 2 -2.0 13.873654375000005 9.909753125000003 5.945851875000001
85 1 4.0 7.927802500000003 7.927802500000003 7.927802500000003
86 1 4.0 7.927802500000003 11.891703750000001 11.891703750000001
87 1 4.0 11.891703750000001 7.927802500000003 11.891703750000001
88 1 4.0 11.891703750000001 11.891703750000001 7.927802500000003
89 2 -2.0 9.909753125000003 9.909753125000003 13.873654375000005
90 2 -2.0 9.909753125000003 13.873654375000005 13.873654375000005
91 2 -2.0 9.909753125000003 13.873654375000005 9.909753125000003
92 2 -2.0 9.909753125000003 9.909753125000003 9.909753125000003
93 2 -2.0 13.873654375000005 9.909753125000003 9.909753125000003
94 2 -2.0 13.873654375000005 13.873654375000005 9.909753125000003
95 2 -2.0 13.873654375000005 13.873654375000005 13.873654375000005
96 2 -2.0 13.873654375000005 9.909753125000003 13.873654375000005
