 # "Ce32 O64"
  
          96  atoms
           2  atom types
 
0.0 18.151934000000008 xlo xhi
0.0 18.151934000000008 ylo yhi
0.0 18.151934000000008 zlo zhi
 
Masses
 
            1   140.11600000            # Ce
            2   15.99900000             # O
 
Atoms
 
1 1 4.0 0.0 0.0 0.0
2 1 4.0 0.0 4.537983500000002 4.537983500000002
3 1 4.0 4.537983500000002 0.0 4.537983500000002
4 1 4.0 4.537983500000002 4.537983500000002 0.0
5 2 -2.0 2.268991750000001 2.268991750000001 6.806975250000002
6 2 -2.0 2.268991750000001 6.806975250000002 6.806975250000002
7 2 -2.0 2.268991750000001 6.806975250000002 2.268991750000001
8 2 -2.0 2.268991750000001 2.268991750000001 2.268991750000001
9 2 -2.0 6.806975250000002 2.268991750000001 2.268991750000001
10 2 -2.0 6.806975250000002 6.806975250000002 2.268991750000001
11 2 -2.0 6.806975250000002 6.806975250000002 6.806975250000002
12 2 -2.0 6.806975250000002 2.268991750000001 6.806975250000002
13 1 4.0 0.0 0.0 9.075967000000004
14 1 4.0 0.0 4.537983500000002 13.613950500000003
15 1 4.0 4.537983500000002 18.151934000000008 13.613950500000003
16 1 4.0 4.537983500000002 4.537983500000002 9.075967000000004
17 2 -2.0 2.268991750000001 2.268991750000001 15.882942250000006
18 2 -2.0 2.268991750000001 6.806975250000002 15.882942250000006
19 2 -2.0 2.268991750000001 6.806975250000002 11.344958750000004
20 2 -2.0 2.268991750000001 2.268991750000001 11.344958750000004
21 2 -2.0 6.806975250000002 2.268991750000001 11.344958750000004
22 2 -2.0 6.806975250000002 6.806975250000002 11.344958750000004
23 2 -2.0 6.806975250000002 6.806975250000002 15.882942250000006
24 2 -2.0 6.806975250000002 2.268991750000001 15.882942250000006
25 1 4.0 0.0 9.075967000000004 0.0
26 1 4.0 0.0 13.613950500000003 4.537983500000002
27 1 4.0 4.537983500000002 9.075967000000004 4.537983500000002
28 1 4.0 4.537983500000002 13.613950500000003 0.0
29 2 -2.0 2.268991750000001 11.344958750000004 6.806975250000002
30 2 -2.0 2.268991750000001 15.882942250000006 6.806975250000002
31 2 -2.0 2.268991750000001 15.882942250000006 2.268991750000001
32 2 -2.0 2.268991750000001 11.344958750000004 2.268991750000001
33 2 -2.0 6.806975250000002 11.344958750000004 2.268991750000001
34 2 -2.0 6.806975250000002 15.882942250000006 2.268991750000001
35 2 -2.0 6.806975250000002 15.882942250000006 6.806975250000002
36 2 -2.0 6.806975250000002 11.344958750000004 6.806975250000002
37 1 4.0 0.0 9.075967000000004 9.075967000000004
38 1 4.0 0.0 13.613950500000003 13.613950500000003
39 1 4.0 4.537983500000002 9.075967000000004 13.613950500000003
40 1 4.0 4.537983500000002 13.613950500000003 9.075967000000004
41 2 -2.0 2.268991750000001 11.344958750000004 15.882942250000006
42 2 -2.0 2.268991750000001 15.882942250000006 15.882942250000006
43 2 -2.0 2.268991750000001 15.882942250000006 11.344958750000004
44 2 -2.0 2.268991750000001 11.344958750000004 11.344958750000004
45 2 -2.0 6.806975250000002 11.344958750000004 11.344958750000004
46 2 -2.0 6.806975250000002 15.882942250000006 11.344958750000004
47 2 -2.0 6.806975250000002 15.882942250000006 15.882942250000006
48 2 -2.0 6.806975250000002 11.344958750000004 15.882942250000006
49 1 4.0 9.075967000000004 0.0 0.0
50 1 4.0 9.075967000000004 4.537983500000002 4.537983500000002
51 1 4.0 13.613950500000003 0.0 4.537983500000002
52 1 4.0 13.613950500000003 4.537983500000002 0.0
53 2 -2.0 11.344958750000004 2.268991750000001 6.806975250000002
54 2 -2.0 11.344958750000004 6.806975250000002 6.806975250000002
55 2 -2.0 11.344958750000004 6.806975250000002 2.268991750000001
56 2 -2.0 11.344958750000004 2.268991750000001 2.268991750000001
57 2 -2.0 15.882942250000006 2.268991750000001 2.268991750000001
58 2 -2.0 15.882942250000006 6.806975250000002 2.268991750000001
59 2 -2.0 15.882942250000006 6.806975250000002 6.806975250000002
60 2 -2.0 15.882942250000006 2.268991750000001 6.806975250000002
61 1 4.0 9.075967000000004 0.0 9.075967000000004
62 1 4.0 9.075967000000004 4.537983500000002 13.613950500000003
63 1 4.0 13.613950500000003 18.151934000000008 13.613950500000003
64 1 4.0 13.613950500000003 4.537983500000002 9.075967000000004
65 2 -2.0 11.344958750000004 2.268991750000001 15.882942250000006
66 2 -2.0 11.344958750000004 6.806975250000002 15.882942250000006
67 2 -2.0 11.344958750000004 6.806975250000002 11.344958750000004
68 2 -2.0 11.344958750000004 2.268991750000001 11.344958750000004
69 2 -2.0 15.882942250000006 2.268991750000001 11.344958750000004
70 2 -2.0 15.882942250000006 6.806975250000002 11.344958750000004
71 2 -2.0 15.882942250000006 6.806975250000002 15.882942250000006
72 2 -2.0 15.882942250000006 2.268991750000001 15.882942250000006
73 1 4.0 9.075967000000004 9.075967000000004 0.0
74 1 4.0 9.075967000000004 13.613950500000003 4.537983500000002
75 1 4.0 13.613950500000003 9.075967000000004 4.537983500000002
76 1 4.0 13.613950500000003 13.613950500000003 0.0
77 2 -2.0 11.344958750000004 11.344958750000004 6.806975250000002
78 2 -2.0 11.344958750000004 15.882942250000006 6.806975250000002
79 2 -2.0 11.344958750000004 15.882942250000006 2.268991750000001
80 2 -2.0 11.344958750000004 11.344958750000004 2.268991750000001
81 2 -2.0 15.882942250000006 11.344958750000004 2.268991750000001
82 2 -2.0 15.882942250000006 15.882942250000006 2.268991750000001
83 2 -2.0 15.882942250000006 15.882942250000006 6.806975250000002
84 2 -2.0 15.882942250000006 11.344958750000004 6.806975250000002
85 1 4.0 9.075967000000004 9.075967000000004 9.075967000000004
86 1 4.0 9.075967000000004 13.613950500000003 13.613950500000003
87 1 4.0 13.613950500000003 9.075967000000004 13.613950500000003
88 1 4.0 13.613950500000003 13.613950500000003 9.075967000000004
89 2 -2.0 11.344958750000004 11.344958750000004 15.882942250000006
90 2 -2.0 11.344958750000004 15.882942250000006 15.882942250000006
91 2 -2.0 11.344958750000004 15.882942250000006 11.344958750000004
92 2 -2.0 11.344958750000004 11.344958750000004 11.344958750000004
93 2 -2.0 15.882942250000006 11.344958750000004 11.344958750000004
94 2 -2.0 15.882942250000006 15.882942250000006 11.344958750000004
95 2 -2.0 15.882942250000006 15.882942250000006 15.882942250000006
96 2 -2.0 15.882942250000006 11.344958750000004 15.882942250000006
