 # "Ce32 O64"
  
          96  atoms
           2  atom types
 
0.0 10.825551 xlo xhi
0.0 10.825551 ylo yhi
0.0 10.825551 zlo zhi
 
Masses
 
            1   140.11600000            # Ce
            2   15.99900000             # O
 
Atoms
 
1 1 4.0 0.0 0.0 0.0
2 1 4.0 0.0 2.70638775 2.70638775
3 1 4.0 2.70638775 0.0 2.70638775
4 1 4.0 2.70638775 2.70638775 0.0
5 2 -2.0 1.353193875 1.353193875 4.059581625
6 2 -2.0 1.353193875 4.059581625 4.059581625
7 2 -2.0 1.353193875 4.059581625 1.353193875
8 2 -2.0 1.353193875 1.353193875 1.353193875
9 2 -2.0 4.059581625 1.353193875 1.353193875
10 2 -2.0 4.059581625 4.059581625 1.353193875
11 2 -2.0 4.059581625 4.059581625 4.059581625
12 2 -2.0 4.059581625 1.353193875 4.059581625
13 1 4.0 0.0 0.0 5.4127755
14 1 4.0 0.0 2.70638775 8.11916325
15 1 4.0 2.70638775 10.825551 8.11916325
16 1 4.0 2.70638775 2.70638775 5.4127755
17 2 -2.0 1.353193875 1.353193875 9.472357125
18 2 -2.0 1.353193875 4.059581625 9.472357125
19 2 -2.0 1.353193875 4.059581625 6.765969375
20 2 -2.0 1.353193875 1.353193875 6.765969375
21 2 -2.0 4.059581625 1.353193875 6.765969375
22 2 -2.0 4.059581625 4.059581625 6.765969375
23 2 -2.0 4.059581625 4.059581625 9.472357125
24 2 -2.0 4.059581625 1.353193875 9.472357125
25 1 4.0 0.0 5.4127755 0.0
26 1 4.0 0.0 8.11916325 2.70638775
27 1 4.0 2.70638775 5.4127755 2.70638775
28 1 4.0 2.70638775 8.11916325 0.0
29 2 -2.0 1.353193875 6.765969375 4.059581625
30 2 -2.0 1.353193875 9.472357125 4.059581625
31 2 -2.0 1.353193875 9.472357125 1.353193875
32 2 -2.0 1.353193875 6.765969375 1.353193875
33 2 -2.0 4.059581625 6.765969375 1.353193875
34 2 -2.0 4.059581625 9.472357125 1.353193875
35 2 -2.0 4.059581625 9.472357125 4.059581625
36 2 -2.0 4.059581625 6.765969375 4.059581625
37 1 4.0 0.0 5.4127755 5.4127755
38 1 4.0 0.0 8.11916325 8.11916325
39 1 4.0 2.70638775 5.4127755 8.11916325
40 1 4.0 2.70638775 8.11916325 5.4127755
41 2 -2.0 1.353193875 6.765969375 9.472357125
42 2 -2.0 1.353193875 9.472357125 9.472357125
43 2 -2.0 1.353193875 9.472357125 6.765969375
44 2 -2.0 1.353193875 6.765969375 6.765969375
45 2 -2.0 4.059581625 6.765969375 6.765969375
46 2 -2.0 4.059581625 9.472357125 6.765969375
47 2 -2.0 4.059581625 9.472357125 9.472357125
48 2 -2.0 4.059581625 6.765969375 9.472357125
49 1 4.0 5.4127755 0.0 0.0
50 1 4.0 5.4127755 2.70638775 2.70638775
51 1 4.0 8.11916325 0.0 2.70638775
52 1 4.0 8.11916325 2.70638775 0.0
53 2 -2.0 6.765969375 1.353193875 4.059581625
54 2 -2.0 6.765969375 4.059581625 4.059581625
55 2 -2.0 6.765969375 4.059581625 1.353193875
56 2 -2.0 6.765969375 1.353193875 1.353193875
57 2 -2.0 9.472357125 1.353193875 1.353193875
58 2 -2.0 9.472357125 4.059581625 1.353193875
59 2 -2.0 9.472357125 4.059581625 4.059581625
60 2 -2.0 9.472357125 1.353193875 4.059581625
61 1 4.0 5.4127755 0.0 5.4127755
62 1 4.0 5.4127755 2.70638775 8.11916325
63 1 4.0 8.11916325 10.825551 8.11916325
64 1 4.0 8.11916325 2.70638775 5.4127755
65 2 -2.0 6.765969375 1.353193875 9.472357125
66 2 -2.0 6.765969375 4.059581625 9.472357125
67 2 -2.0 6.765969375 4.059581625 6.765969375
68 2 -2.0 6.765969375 1.353193875 6.765969375
69 2 -2.0 9.472357125 1.353193875 6.765969375
70 2 -2.0 9.472357125 4.059581625 6.765969375
71 2 -2.0 9.472357125 4.059581625 9.472357125
72 2 -2.0 9.472357125 1.353193875 9.472357125
73 1 4.0 5.4127755 5.4127755 0.0
74 1 4.0 5.4127755 8.11916325 2.70638775
75 1 4.0 8.11916325 5.4127755 2.70638775
76 1 4.0 8.11916325 8.11916325 0.0
77 2 -2.0 6.765969375 6.765969375 4.059581625
78 2 -2.0 6.765969375 9.472357125 4.059581625
79 2 -2.0 6.765969375 9.472357125 1.353193875
80 2 -2.0 6.765969375 6.765969375 1.353193875
81 2 -2.0 9.472357125 6.765969375 1.353193875
82 2 -2.0 9.472357125 9.472357125 1.353193875
83 2 -2.0 9.472357125 9.472357125 4.059581625
84 2 -2.0 9.472357125 6.765969375 4.059581625
85 1 4.0 5.4127755 5.4127755 5.4127755
86 1 4.0 5.4127755 8.11916325 8.11916325
87 1 4.0 8.11916325 5.4127755 8.11916325
88 1 4.0 8.11916325 8.11916325 5.4127755
89 2 -2.0 6.765969375 6.765969375 9.472357125
90 2 -2.0 6.765969375 9.472357125 9.472357125
91 2 -2.0 6.765969375 9.472357125 6.765969375
92 2 -2.0 6.765969375 6.765969375 6.765969375
93 2 -2.0 9.472357125 6.765969375 6.765969375
94 2 -2.0 9.472357125 9.472357125 6.765969375
95 2 -2.0 9.472357125 9.472357125 9.472357125
96 2 -2.0 9.472357125 6.765969375 9.472357125
