 # "Ce32 O64"
  
          96  atoms
           2  atom types
 
0.0 14.106021000000004 xlo xhi
0.0 14.106021000000004 ylo yhi
0.0 14.106021000000004 zlo zhi
 
Masses
 
            1   140.11600000            # Ce
            2   15.99900000             # O
 
Atoms
 
1 1 4.0 0.0 0.0 0.0
2 1 4.0 0.0 3.526505250000001 3.526505250000001
3 1 4.0 3.526505250000001 0.0 3.526505250000001
4 1 4.0 3.526505250000001 3.526505250000001 0.0
5 2 -2.0 1.7632526250000005 1.7632526250000005 5.289757875
6 2 -2.0 1.7632526250000005 5.289757875 5.289757875
7 2 -2.0 1.7632526250000005 5.289757875 1.7632526250000005
8 2 -2.0 1.7632526250000005 1.7632526250000005 1.7632526250000005
9 2 -2.0 5.289757875 1.7632526250000005 1.7632526250000005
10 2 -2.0 5.289757875 5.289757875 1.7632526250000005
11 2 -2.0 5.289757875 5.289757875 5.289757875
12 2 -2.0 5.289757875 1.7632526250000005 5.289757875
13 1 4.0 0.0 0.0 7.053010500000002
14 1 4.0 0.0 3.526505250000001 10.57951575
15 1 4.0 3.526505250000001 14.106021000000004 10.57951575
16 1 4.0 3.526505250000001 3.526505250000001 7.053010500000002
17 2 -2.0 1.7632526250000005 1.7632526250000005 12.342768375000004
18 2 -2.0 1.7632526250000005 5.289757875 12.342768375000004
19 2 -2.0 1.7632526250000005 5.289757875 8.816263125000003
20 2 -2.0 1.7632526250000005 1.7632526250000005 8.816263125000003
21 2 -2.0 5.289757875 1.7632526250000005 8.816263125000003
22 2 -2.0 5.289757875 5.289757875 8.816263125000003
23 2 -2.0 5.289757875 5.289757875 12.342768375000004
24 2 -2.0 5.289757875 1.7632526250000005 12.342768375000004
25 1 4.0 0.0 7.053010500000002 0.0
26 1 4.0 0.0 10.57951575 3.526505250000001
27 1 4.0 3.526505250000001 7.053010500000002 3.526505250000001
28 1 4.0 3.526505250000001 10.57951575 0.0
29 2 -2.0 1.7632526250000005 8.816263125000003 5.289757875
30 2 -2.0 1.7632526250000005 12.342768375000004 5.289757875
31 2 -2.0 1.7632526250000005 12.342768375000004 1.7632526250000005
32 2 -2.0 1.7632526250000005 8.816263125000003 1.7632526250000005
33 2 -2.0 5.289757875 8.816263125000003 1.7632526250000005
34 2 -2.0 5.289757875 12.342768375000004 1.7632526250000005
35 2 -2.0 5.289757875 12.342768375000004 5.289757875
36 2 -2.0 5.289757875 8.816263125000003 5.289757875
37 1 4.0 0.0 7.053010500000002 7.053010500000002
38 1 4.0 0.0 10.57951575 10.57951575
39 1 4.0 3.526505250000001 7.053010500000002 10.57951575
40 1 4.0 3.526505250000001 10.57951575 7.053010500000002
41 2 -2.0 1.7632526250000005 8.816263125000003 12.342768375000004
42 2 -2.0 1.7632526250000005 12.342768375000004 12.342768375000004
43 2 -2.0 1.7632526250000005 12.342768375000004 8.816263125000003
44 2 -2.0 1.7632526250000005 8.816263125000003 8.816263125000003
45 2 -2.0 5.289757875 8.816263125000003 8.816263125000003
46 2 -2.0 5.289757875 12.342768375000004 8.816263125000003
47 2 -2.0 5.289757875 12.342768375000004 12.342768375000004
48 2 -2.0 5.289757875 8.816263125000003 12.342768375000004
49 1 4.0 7.053010500000002 0.0 0.0
50 1 4.0 7.053010500000002 3.526505250000001 3.526505250000001
51 1 4.0 10.57951575 0.0 3.526505250000001
52 1 4.0 10.57951575 3.526505250000001 0.0
53 2 -2.0 8.816263125000003 1.7632526250000005 5.289757875
54 2 -2.0 8.816263125000003 5.289757875 5.289757875
55 2 -2.0 8.816263125000003 5.289757875 1.7632526250000005
56 2 -2.0 8.816263125000003 1.7632526250000005 1.7632526250000005
57 2 -2.0 12.342768375000004 1.7632526250000005 1.7632526250000005
58 2 -2.0 12.342768375000004 5.289757875 1.7632526250000005
59 2 -2.0 12.342768375000004 5.289757875 5.289757875
60 2 -2.0 12.342768375000004 1.7632526250000005 5.289757875
61 1 4.0 7.053010500000002 0.0 7.053010500000002
62 1 4.0 7.053010500000002 3.526505250000001 10.57951575
63 1 4.0 10.57951575 14.106021000000004 10.57951575
64 1 4.0 10.57951575 3.526505250000001 7.053010500000002
65 2 -2.0 8.816263125000003 1.7632526250000005 12.342768375000004
66 2 -2.0 8.816263125000003 5.289757875 12.342768375000004
67 2 -2.0 8.816263125000003 5.289757875 8.816263125000003
68 2 -2.0 8.816263125000003 1.7632526250000005 8.816263125000003
69 2 -2.0 12.342768375000004 1.7632526250000005 8.816263125000003
70 2 -2.0 12.342768375000004 5.289757875 8.816263125000003
71 2 -2.0 12.342768375000004 5.289757875 12.342768375000004
72 2 -2.0 12.342768375000004 1.7632526250000005 12.342768375000004
73 1 4.0 7.053010500000002 7.053010500000002 0.0
74 1 4.0 7.053010500000002 10.57951575 3.526505250000001
75 1 4.0 10.57951575 7.053010500000002 3.526505250000001
76 1 4.0 10.57951575 10.57951575 0.0
77 2 -2.0 8.816263125000003 8.816263125000003 5.289757875
78 2 -2.0 8.816263125000003 12.342768375000004 5.289757875
79 2 -2.0 8.816263125000003 12.342768375000004 1.7632526250000005
80 2 -2.0 8.816263125000003 8.816263125000003 1.7632526250000005
81 2 -2.0 12.342768375000004 8.816263125000003 1.7632526250000005
82 2 -2.0 12.342768375000004 12.342768375000004 1.7632526250000005
83 2 -2.0 12.342768375000004 12.342768375000004 5.289757875
84 2 -2.0 12.342768375000004 8.816263125000003 5.289757875
85 1 4.0 7.053010500000002 7.053010500000002 7.053010500000002
86 1 4.0 7.053010500000002 10.57951575 10.57951575
87 1 4.0 10.57951575 7.053010500000002 10.57951575
88 1 4.0 10.57951575 10.57951575 7.053010500000002
89 2 -2.0 8.816263125000003 8.816263125000003 12.342768375000004
90 2 -2.0 8.816263125000003 12.342768375000004 12.342768375000004
91 2 -2.0 8.816263125000003 12.342768375000004 8.816263125000003
92 2 -2.0 8.816263125000003 8.816263125000003 8.816263125000003
93 2 -2.0 12.342768375000004 8.816263125000003 8.816263125000003
94 2 -2.0 12.342768375000004 12.342768375000004 8.816263125000003
95 2 -2.0 12.342768375000004 12.342768375000004 12.342768375000004
96 2 -2.0 12.342768375000004 8.816263125000003 12.342768375000004
