 # "Ce32 O64"
  
          96  atoms
           2  atom types
 
0.0 16.949095000000007 xlo xhi
0.0 16.949095000000007 ylo yhi
0.0 16.949095000000007 zlo zhi
 
Masses
 
            1   140.11600000            # Ce
            2   15.99900000             # O
 
Atoms
 
1 1 4.0 0.0 0.0 0.0
2 1 4.0 0.0 4.237273750000002 4.237273750000002
3 1 4.0 4.237273750000002 0.0 4.237273750000002
4 1 4.0 4.237273750000002 4.237273750000002 0.0
5 2 -2.0 2.118636875000001 2.118636875000001 6.355910625000002
6 2 -2.0 2.118636875000001 6.355910625000002 6.355910625000002
7 2 -2.0 2.118636875000001 6.355910625000002 2.118636875000001
8 2 -2.0 2.118636875000001 2.118636875000001 2.118636875000001
9 2 -2.0 6.355910625000002 2.118636875000001 2.118636875000001
10 2 -2.0 6.355910625000002 6.355910625000002 2.118636875000001
11 2 -2.0 6.355910625000002 6.355910625000002 6.355910625000002
12 2 -2.0 6.355910625000002 2.118636875000001 6.355910625000002
13 1 4.0 0.0 0.0 8.474547500000003
14 1 4.0 0.0 4.237273750000002 12.711821250000003
15 1 4.0 4.237273750000002 16.949095000000007 12.711821250000003
16 1 4.0 4.237273750000002 4.237273750000002 8.474547500000003
17 2 -2.0 2.118636875000001 2.118636875000001 14.830458125000005
18 2 -2.0 2.118636875000001 6.355910625000002 14.830458125000005
19 2 -2.0 2.118636875000001 6.355910625000002 10.593184375000003
20 2 -2.0 2.118636875000001 2.118636875000001 10.593184375000003
21 2 -2.0 6.355910625000002 2.118636875000001 10.593184375000003
22 2 -2.0 6.355910625000002 6.355910625000002 10.593184375000003
23 2 -2.0 6.355910625000002 6.355910625000002 14.830458125000005
24 2 -2.0 6.355910625000002 2.118636875000001 14.830458125000005
25 1 4.0 0.0 8.474547500000003 0.0
26 1 4.0 0.0 12.711821250000003 4.237273750000002
27 1 4.0 4.237273750000002 8.474547500000003 4.237273750000002
28 1 4.0 4.237273750000002 12.711821250000003 0.0
29 2 -2.0 2.118636875000001 10.593184375000003 6.355910625000002
30 2 -2.0 2.118636875000001 14.830458125000005 6.355910625000002
31 2 -2.0 2.118636875000001 14.830458125000005 2.118636875000001
32 2 -2.0 2.118636875000001 10.593184375000003 2.118636875000001
33 2 -2.0 6.355910625000002 10.593184375000003 2.118636875000001
34 2 -2.0 6.355910625000002 14.830458125000005 2.118636875000001
35 2 -2.0 6.355910625000002 14.830458125000005 6.355910625000002
36 2 -2.0 6.355910625000002 10.593184375000003 6.355910625000002
37 1 4.0 0.0 8.474547500000003 8.474547500000003
38 1 4.0 0.0 12.711821250000003 12.711821250000003
39 1 4.0 4.237273750000002 8.474547500000003 12.711821250000003
40 1 4.0 4.237273750000002 12.711821250000003 8.474547500000003
41 2 -2.0 2.118636875000001 10.593184375000003 14.830458125000005
42 2 -2.0 2.118636875000001 14.830458125000005 14.830458125000005
43 2 -2.0 2.118636875000001 14.830458125000005 10.593184375000003
44 2 -2.0 2.118636875000001 10.593184375000003 10.593184375000003
45 2 -2.0 6.355910625000002 10.593184375000003 10.593184375000003
46 2 -2.0 6.355910625000002 14.830458125000005 10.593184375000003
47 2 -2.0 6.355910625000002 14.830458125000005 14.830458125000005
48 2 -2.0 6.355910625000002 10.593184375000003 14.830458125000005
49 1 4.0 8.474547500000003 0.0 0.0
50 1 4.0 8.474547500000003 4.237273750000002 4.237273750000002
51 1 4.0 12.711821250000003 0.0 4.237273750000002
52 1 4.0 12.711821250000003 4.237273750000002 0.0
53 2 -2.0 10.593184375000003 2.118636875000001 6.355910625000002
54 2 -2.0 10.593184375000003 6.355910625000002 6.355910625000002
55 2 -2.0 10.593184375000003 6.355910625000002 2.118636875000001
56 2 -2.0 10.593184375000003 2.118636875000001 2.118636875000001
57 2 -2.0 14.830458125000005 2.118636875000001 2.118636875000001
58 2 -2.0 14.830458125000005 6.355910625000002 2.118636875000001
59 2 -2.0 14.830458125000005 6.355910625000002 6.355910625000002
60 2 -2.0 14.830458125000005 2.118636875000001 6.355910625000002
61 1 4.0 8.474547500000003 0.0 8.474547500000003
62 1 4.0 8.474547500000003 4.237273750000002 12.711821250000003
63 1 4.0 12.711821250000003 16.949095000000007 12.711821250000003
64 1 4.0 12.711821250000003 4.237273750000002 8.474547500000003
65 2 -2.0 10.593184375000003 2.118636875000001 14.830458125000005
66 2 -2.0 10.593184375000003 6.355910625000002 14.830458125000005
67 2 -2.0 10.593184375000003 6.355910625000002 10.593184375000003
68 2 -2.0 10.593184375000003 2.118636875000001 10.593184375000003
69 2 -2.0 14.830458125000005 2.118636875000001 10.593184375000003
70 2 -2.0 14.830458125000005 6.355910625000002 10.593184375000003
71 2 -2.0 14.830458125000005 6.355910625000002 14.830458125000005
72 2 -2.0 14.830458125000005 2.118636875000001 14.830458125000005
73 1 4.0 8.474547500000003 8.474547500000003 0.0
74 1 4.0 8.474547500000003 12.711821250000003 4.237273750000002
75 1 4.0 12.711821250000003 8.474547500000003 4.237273750000002
76 1 4.0 12.711821250000003 12.711821250000003 0.0
77 2 -2.0 10.593184375000003 10.593184375000003 6.355910625000002
78 2 -2.0 10.593184375000003 14.830458125000005 6.355910625000002
79 2 -2.0 10.593184375000003 14.830458125000005 2.118636875000001
80 2 -2.0 10.593184375000003 10.593184375000003 2.118636875000001
81 2 -2.0 14.830458125000005 10.593184375000003 2.118636875000001
82 2 -2.0 14.830458125000005 14.830458125000005 2.118636875000001
83 2 -2.0 14.830458125000005 14.830458125000005 6.355910625000002
84 2 -2.0 14.830458125000005 10.593184375000003 6.355910625000002
85 1 4.0 8.474547500000003 8.474547500000003 8.474547500000003
86 1 4.0 8.474547500000003 12.711821250000003 12.711821250000003
87 1 4.0 12.711821250000003 8.474547500000003 12.711821250000003
88 1 4.0 12.711821250000003 12.711821250000003 8.474547500000003
89 2 -2.0 10.593184375000003 10.593184375000003 14.830458125000005
90 2 -2.0 10.593184375000003 14.830458125000005 14.830458125000005
91 2 -2.0 10.593184375000003 14.830458125000005 10.593184375000003
92 2 -2.0 10.593184375000003 10.593184375000003 10.593184375000003
93 2 -2.0 14.830458125000005 10.593184375000003 10.593184375000003
94 2 -2.0 14.830458125000005 14.830458125000005 10.593184375000003
95 2 -2.0 14.830458125000005 14.830458125000005 14.830458125000005
96 2 -2.0 14.830458125000005 10.593184375000003 14.830458125000005
