 # "Ce32 O64"
  
          96  atoms
           2  atom types
 
0.0 10.716202000000001 xlo xhi
0.0 10.716202000000001 ylo yhi
0.0 10.716202000000001 zlo zhi
 
Masses
 
            1   140.11600000            # Ce
            2   15.99900000             # O
 
Atoms
 
1 1 4.0 0.0 0.0 0.0
2 1 4.0 0.0 2.6790505000000002 2.6790505000000002
3 1 4.0 2.6790505000000002 0.0 2.6790505000000002
4 1 4.0 2.6790505000000002 2.6790505000000002 0.0
5 2 -2.0 1.3395252500000001 1.3395252500000001 4.018575749999999
6 2 -2.0 1.3395252500000001 4.018575749999999 4.018575749999999
7 2 -2.0 1.3395252500000001 4.018575749999999 1.3395252500000001
8 2 -2.0 1.3395252500000001 1.3395252500000001 1.3395252500000001
9 2 -2.0 4.018575749999999 1.3395252500000001 1.3395252500000001
10 2 -2.0 4.018575749999999 4.018575749999999 1.3395252500000001
11 2 -2.0 4.018575749999999 4.018575749999999 4.018575749999999
12 2 -2.0 4.018575749999999 1.3395252500000001 4.018575749999999
13 1 4.0 0.0 0.0 5.3581010000000004
14 1 4.0 0.0 2.6790505000000002 8.037151499999998
15 1 4.0 2.6790505000000002 10.716202000000001 8.037151499999998
16 1 4.0 2.6790505000000002 2.6790505000000002 5.3581010000000004
17 2 -2.0 1.3395252500000001 1.3395252500000001 9.376676750000001
18 2 -2.0 1.3395252500000001 4.018575749999999 9.376676750000001
19 2 -2.0 1.3395252500000001 4.018575749999999 6.69762625
20 2 -2.0 1.3395252500000001 1.3395252500000001 6.69762625
21 2 -2.0 4.018575749999999 1.3395252500000001 6.69762625
22 2 -2.0 4.018575749999999 4.018575749999999 6.69762625
23 2 -2.0 4.018575749999999 4.018575749999999 9.376676750000001
24 2 -2.0 4.018575749999999 1.3395252500000001 9.376676750000001
25 1 4.0 0.0 5.3581010000000004 0.0
26 1 4.0 0.0 8.037151499999998 2.6790505000000002
27 1 4.0 2.6790505000000002 5.3581010000000004 2.6790505000000002
28 1 4.0 2.6790505000000002 8.037151499999998 0.0
29 2 -2.0 1.3395252500000001 6.69762625 4.018575749999999
30 2 -2.0 1.3395252500000001 9.376676750000001 4.018575749999999
31 2 -2.0 1.3395252500000001 9.376676750000001 1.3395252500000001
32 2 -2.0 1.3395252500000001 6.69762625 1.3395252500000001
33 2 -2.0 4.018575749999999 6.69762625 1.3395252500000001
34 2 -2.0 4.018575749999999 9.376676750000001 1.3395252500000001
35 2 -2.0 4.018575749999999 9.376676750000001 4.018575749999999
36 2 -2.0 4.018575749999999 6.69762625 4.018575749999999
37 1 4.0 0.0 5.3581010000000004 5.3581010000000004
38 1 4.0 0.0 8.037151499999998 8.037151499999998
39 1 4.0 2.6790505000000002 5.3581010000000004 8.037151499999998
40 1 4.0 2.6790505000000002 8.037151499999998 5.3581010000000004
41 2 -2.0 1.3395252500000001 6.69762625 9.376676750000001
42 2 -2.0 1.3395252500000001 9.376676750000001 9.376676750000001
43 2 -2.0 1.3395252500000001 9.376676750000001 6.69762625
44 2 -2.0 1.3395252500000001 6.69762625 6.69762625
45 2 -2.0 4.018575749999999 6.69762625 6.69762625
46 2 -2.0 4.018575749999999 9.376676750000001 6.69762625
47 2 -2.0 4.018575749999999 9.376676750000001 9.376676750000001
48 2 -2.0 4.018575749999999 6.69762625 9.376676750000001
49 1 4.0 5.3581010000000004 0.0 0.0
50 1 4.0 5.3581010000000004 2.6790505000000002 2.6790505000000002
51 1 4.0 8.037151499999998 0.0 2.6790505000000002
52 1 4.0 8.037151499999998 2.6790505000000002 0.0
53 2 -2.0 6.69762625 1.3395252500000001 4.018575749999999
54 2 -2.0 6.69762625 4.018575749999999 4.018575749999999
55 2 -2.0 6.69762625 4.018575749999999 1.3395252500000001
56 2 -2.0 6.69762625 1.3395252500000001 1.3395252500000001
57 2 -2.0 9.376676750000001 1.3395252500000001 1.3395252500000001
58 2 -2.0 9.376676750000001 4.018575749999999 1.3395252500000001
59 2 -2.0 9.376676750000001 4.018575749999999 4.018575749999999
60 2 -2.0 9.376676750000001 1.3395252500000001 4.018575749999999
61 1 4.0 5.3581010000000004 0.0 5.3581010000000004
62 1 4.0 5.3581010000000004 2.6790505000000002 8.037151499999998
63 1 4.0 8.037151499999998 10.716202000000001 8.037151499999998
64 1 4.0 8.037151499999998 2.6790505000000002 5.3581010000000004
65 2 -2.0 6.69762625 1.3395252500000001 9.376676750000001
66 2 -2.0 6.69762625 4.018575749999999 9.376676750000001
67 2 -2.0 6.69762625 4.018575749999999 6.69762625
68 2 -2.0 6.69762625 1.3395252500000001 6.69762625
69 2 -2.0 9.376676750000001 1.3395252500000001 6.69762625
70 2 -2.0 9.376676750000001 4.018575749999999 6.69762625
71 2 -2.0 9.376676750000001 4.018575749999999 9.376676750000001
72 2 -2.0 9.376676750000001 1.3395252500000001 9.376676750000001
73 1 4.0 5.3581010000000004 5.3581010000000004 0.0
74 1 4.0 5.3581010000000004 8.037151499999998 2.6790505000000002
75 1 4.0 8.037151499999998 5.3581010000000004 2.6790505000000002
76 1 4.0 8.037151499999998 8.037151499999998 0.0
77 2 -2.0 6.69762625 6.69762625 4.018575749999999
78 2 -2.0 6.69762625 9.376676750000001 4.018575749999999
79 2 -2.0 6.69762625 9.376676750000001 1.3395252500000001
80 2 -2.0 6.69762625 6.69762625 1.3395252500000001
81 2 -2.0 9.376676750000001 6.69762625 1.3395252500000001
82 2 -2.0 9.376676750000001 9.376676750000001 1.3395252500000001
83 2 -2.0 9.376676750000001 9.376676750000001 4.018575749999999
84 2 -2.0 9.376676750000001 6.69762625 4.018575749999999
85 1 4.0 5.3581010000000004 5.3581010000000004 5.3581010000000004
86 1 4.0 5.3581010000000004 8.037151499999998 8.037151499999998
87 1 4.0 8.037151499999998 5.3581010000000004 8.037151499999998
88 1 4.0 8.037151499999998 8.037151499999998 5.3581010000000004
89 2 -2.0 6.69762625 6.69762625 9.376676750000001
90 2 -2.0 6.69762625 9.376676750000001 9.376676750000001
91 2 -2.0 6.69762625 9.376676750000001 6.69762625
92 2 -2.0 6.69762625 6.69762625 6.69762625
93 2 -2.0 9.376676750000001 6.69762625 6.69762625
94 2 -2.0 9.376676750000001 9.376676750000001 6.69762625
95 2 -2.0 9.376676750000001 9.376676750000001 9.376676750000001
96 2 -2.0 9.376676750000001 6.69762625 9.376676750000001
