 # "Ce32 O64"
  
          96  atoms
           2  atom types
 
0.0 17.386491000000007 xlo xhi
0.0 17.386491000000007 ylo yhi
0.0 17.386491000000007 zlo zhi
 
Masses
 
            1   140.11600000            # Ce
            2   15.99900000             # O
 
Atoms
 
1 1 4.0 0.0 0.0 0.0
2 1 4.0 0.0 4.346622750000002 4.346622750000002
3 1 4.0 4.346622750000002 0.0 4.346622750000002
4 1 4.0 4.346622750000002 4.346622750000002 0.0
5 2 -2.0 2.173311375000001 2.173311375000001 6.519934125000002
6 2 -2.0 2.173311375000001 6.519934125000002 6.519934125000002
7 2 -2.0 2.173311375000001 6.519934125000002 2.173311375000001
8 2 -2.0 2.173311375000001 2.173311375000001 2.173311375000001
9 2 -2.0 6.519934125000002 2.173311375000001 2.173311375000001
10 2 -2.0 6.519934125000002 6.519934125000002 2.173311375000001
11 2 -2.0 6.519934125000002 6.519934125000002 6.519934125000002
12 2 -2.0 6.519934125000002 2.173311375000001 6.519934125000002
13 1 4.0 0.0 0.0 8.693245500000003
14 1 4.0 0.0 4.346622750000002 13.039868250000003
15 1 4.0 4.346622750000002 17.386491000000007 13.039868250000003
16 1 4.0 4.346622750000002 4.346622750000002 8.693245500000003
17 2 -2.0 2.173311375000001 2.173311375000001 15.213179625000006
18 2 -2.0 2.173311375000001 6.519934125000002 15.213179625000006
19 2 -2.0 2.173311375000001 6.519934125000002 10.866556875000004
20 2 -2.0 2.173311375000001 2.173311375000001 10.866556875000004
21 2 -2.0 6.519934125000002 2.173311375000001 10.866556875000004
22 2 -2.0 6.519934125000002 6.519934125000002 10.866556875000004
23 2 -2.0 6.519934125000002 6.519934125000002 15.213179625000006
24 2 -2.0 6.519934125000002 2.173311375000001 15.213179625000006
25 1 4.0 0.0 8.693245500000003 0.0
26 1 4.0 0.0 13.039868250000003 4.346622750000002
27 1 4.0 4.346622750000002 8.693245500000003 4.346622750000002
28 1 4.0 4.346622750000002 13.039868250000003 0.0
29 2 -2.0 2.173311375000001 10.866556875000004 6.519934125000002
30 2 -2.0 2.173311375000001 15.213179625000006 6.519934125000002
31 2 -2.0 2.173311375000001 15.213179625000006 2.173311375000001
32 2 -2.0 2.173311375000001 10.866556875000004 2.173311375000001
33 2 -2.0 6.519934125000002 10.866556875000004 2.173311375000001
34 2 -2.0 6.519934125000002 15.213179625000006 2.173311375000001
35 2 -2.0 6.519934125000002 15.213179625000006 6.519934125000002
36 2 -2.0 6.519934125000002 10.866556875000004 6.519934125000002
37 1 4.0 0.0 8.693245500000003 8.693245500000003
38 1 4.0 0.0 13.039868250000003 13.039868250000003
39 1 4.0 4.346622750000002 8.693245500000003 13.039868250000003
40 1 4.0 4.346622750000002 13.039868250000003 8.693245500000003
41 2 -2.0 2.173311375000001 10.866556875000004 15.213179625000006
42 2 -2.0 2.173311375000001 15.213179625000006 15.213179625000006
43 2 -2.0 2.173311375000001 15.213179625000006 10.866556875000004
44 2 -2.0 2.173311375000001 10.866556875000004 10.866556875000004
45 2 -2.0 6.519934125000002 10.866556875000004 10.866556875000004
46 2 -2.0 6.519934125000002 15.213179625000006 10.866556875000004
47 2 -2.0 6.519934125000002 15.213179625000006 15.213179625000006
48 2 -2.0 6.519934125000002 10.866556875000004 15.213179625000006
49 1 4.0 8.693245500000003 0.0 0.0
50 1 4.0 8.693245500000003 4.346622750000002 4.346622750000002
51 1 4.0 13.039868250000003 0.0 4.346622750000002
52 1 4.0 13.039868250000003 4.346622750000002 0.0
53 2 -2.0 10.866556875000004 2.173311375000001 6.519934125000002
54 2 -2.0 10.866556875000004 6.519934125000002 6.519934125000002
55 2 -2.0 10.866556875000004 6.519934125000002 2.173311375000001
56 2 -2.0 10.866556875000004 2.173311375000001 2.173311375000001
57 2 -2.0 15.213179625000006 2.173311375000001 2.173311375000001
58 2 -2.0 15.213179625000006 6.519934125000002 2.173311375000001
59 2 -2.0 15.213179625000006 6.519934125000002 6.519934125000002
60 2 -2.0 15.213179625000006 2.173311375000001 6.519934125000002
61 1 4.0 8.693245500000003 0.0 8.693245500000003
62 1 4.0 8.693245500000003 4.346622750000002 13.039868250000003
63 1 4.0 13.039868250000003 17.386491000000007 13.039868250000003
64 1 4.0 13.039868250000003 4.346622750000002 8.693245500000003
65 2 -2.0 10.866556875000004 2.173311375000001 15.213179625000006
66 2 -2.0 10.866556875000004 6.519934125000002 15.213179625000006
67 2 -2.0 10.866556875000004 6.519934125000002 10.866556875000004
68 2 -2.0 10.866556875000004 2.173311375000001 10.866556875000004
69 2 -2.0 15.213179625000006 2.173311375000001 10.866556875000004
70 2 -2.0 15.213179625000006 6.519934125000002 10.866556875000004
71 2 -2.0 15.213179625000006 6.519934125000002 15.213179625000006
72 2 -2.0 15.213179625000006 2.173311375000001 15.213179625000006
73 1 4.0 8.693245500000003 8.693245500000003 0.0
74 1 4.0 8.693245500000003 13.039868250000003 4.346622750000002
75 1 4.0 13.039868250000003 8.693245500000003 4.346622750000002
76 1 4.0 13.039868250000003 13.039868250000003 0.0
77 2 -2.0 10.866556875000004 10.866556875000004 6.519934125000002
78 2 -2.0 10.866556875000004 15.213179625000006 6.519934125000002
79 2 -2.0 10.866556875000004 15.213179625000006 2.173311375000001
80 2 -2.0 10.866556875000004 10.866556875000004 2.173311375000001
81 2 -2.0 15.213179625000006 10.866556875000004 2.173311375000001
82 2 -2.0 15.213179625000006 15.213179625000006 2.173311375000001
83 2 -2.0 15.213179625000006 15.213179625000006 6.519934125000002
84 2 -2.0 15.213179625000006 10.866556875000004 6.519934125000002
85 1 4.0 8.693245500000003 8.693245500000003 8.693245500000003
86 1 4.0 8.693245500000003 13.039868250000003 13.039868250000003
87 1 4.0 13.039868250000003 8.693245500000003 13.039868250000003
88 1 4.0 13.039868250000003 13.039868250000003 8.693245500000003
89 2 -2.0 10.866556875000004 10.866556875000004 15.213179625000006
90 2 -2.0 10.866556875000004 15.213179625000006 15.213179625000006
91 2 -2.0 10.866556875000004 15.213179625000006 10.866556875000004
92 2 -2.0 10.866556875000004 10.866556875000004 10.866556875000004
93 2 -2.0 15.213179625000006 10.866556875000004 10.866556875000004
94 2 -2.0 15.213179625000006 15.213179625000006 10.866556875000004
95 2 -2.0 15.213179625000006 15.213179625000006 15.213179625000006
96 2 -2.0 15.213179625000006 10.866556875000004 15.213179625000006
