 # "Ce32 O64"
  
          96  atoms
           2  atom types
 
0.0 12.684484000000003 xlo xhi
0.0 12.684484000000003 ylo yhi
0.0 12.684484000000003 zlo zhi
 
Masses
 
            1   140.11600000            # Ce
            2   15.99900000             # O
 
Atoms
 
1 1 4.0 0.0 0.0 0.0
2 1 4.0 0.0 3.1711210000000007 3.1711210000000007
3 1 4.0 3.1711210000000007 0.0 3.1711210000000007
4 1 4.0 3.1711210000000007 3.1711210000000007 0.0
5 2 -2.0 1.5855605000000004 1.5855605000000004 4.7566815
6 2 -2.0 1.5855605000000004 4.7566815 4.7566815
7 2 -2.0 1.5855605000000004 4.7566815 1.5855605000000004
8 2 -2.0 1.5855605000000004 1.5855605000000004 1.5855605000000004
9 2 -2.0 4.7566815 1.5855605000000004 1.5855605000000004
10 2 -2.0 4.7566815 4.7566815 1.5855605000000004
11 2 -2.0 4.7566815 4.7566815 4.7566815
12 2 -2.0 4.7566815 1.5855605000000004 4.7566815
13 1 4.0 0.0 0.0 6.3422420000000015
14 1 4.0 0.0 3.1711210000000007 9.513363
15 1 4.0 3.1711210000000007 12.684484000000003 9.513363
16 1 4.0 3.1711210000000007 3.1711210000000007 6.3422420000000015
17 2 -2.0 1.5855605000000004 1.5855605000000004 11.098923500000001
18 2 -2.0 1.5855605000000004 4.7566815 11.098923500000001
19 2 -2.0 1.5855605000000004 4.7566815 7.927802500000001
20 2 -2.0 1.5855605000000004 1.5855605000000004 7.927802500000001
21 2 -2.0 4.7566815 1.5855605000000004 7.927802500000001
22 2 -2.0 4.7566815 4.7566815 7.927802500000001
23 2 -2.0 4.7566815 4.7566815 11.098923500000001
24 2 -2.0 4.7566815 1.5855605000000004 11.098923500000001
25 1 4.0 0.0 6.3422420000000015 0.0
26 1 4.0 0.0 9.513363 3.1711210000000007
27 1 4.0 3.1711210000000007 6.3422420000000015 3.1711210000000007
28 1 4.0 3.1711210000000007 9.513363 0.0
29 2 -2.0 1.5855605000000004 7.927802500000001 4.7566815
30 2 -2.0 1.5855605000000004 11.098923500000001 4.7566815
31 2 -2.0 1.5855605000000004 11.098923500000001 1.5855605000000004
32 2 -2.0 1.5855605000000004 7.927802500000001 1.5855605000000004
33 2 -2.0 4.7566815 7.927802500000001 1.5855605000000004
34 2 -2.0 4.7566815 11.098923500000001 1.5855605000000004
35 2 -2.0 4.7566815 11.098923500000001 4.7566815
36 2 -2.0 4.7566815 7.927802500000001 4.7566815
37 1 4.0 0.0 6.3422420000000015 6.3422420000000015
38 1 4.0 0.0 9.513363 9.513363
39 1 4.0 3.1711210000000007 6.3422420000000015 9.513363
40 1 4.0 3.1711210000000007 9.513363 6.3422420000000015
41 2 -2.0 1.5855605000000004 7.927802500000001 11.098923500000001
42 2 -2.0 1.5855605000000004 11.098923500000001 11.098923500000001
43 2 -2.0 1.5855605000000004 11.098923500000001 7.927802500000001
44 2 -2.0 1.5855605000000004 7.927802500000001 7.927802500000001
45 2 -2.0 4.7566815 7.927802500000001 7.927802500000001
46 2 -2.0 4.7566815 11.098923500000001 7.927802500000001
47 2 -2.0 4.7566815 11.098923500000001 11.098923500000001
48 2 -2.0 4.7566815 7.927802500000001 11.098923500000001
49 1 4.0 6.3422420000000015 0.0 0.0
50 1 4.0 6.3422420000000015 3.1711210000000007 3.1711210000000007
51 1 4.0 9.513363 0.0 3.1711210000000007
52 1 4.0 9.513363 3.1711210000000007 0.0
53 2 -2.0 7.927802500000001 1.5855605000000004 4.7566815
54 2 -2.0 7.927802500000001 4.7566815 4.7566815
55 2 -2.0 7.927802500000001 4.7566815 1.5855605000000004
56 2 -2.0 7.927802500000001 1.5855605000000004 1.5855605000000004
57 2 -2.0 11.098923500000001 1.5855605000000004 1.5855605000000004
58 2 -2.0 11.098923500000001 4.7566815 1.5855605000000004
59 2 -2.0 11.098923500000001 4.7566815 4.7566815
60 2 -2.0 11.098923500000001 1.5855605000000004 4.7566815
61 1 4.0 6.3422420000000015 0.0 6.3422420000000015
62 1 4.0 6.3422420000000015 3.1711210000000007 9.513363
63 1 4.0 9.513363 12.684484000000003 9.513363
64 1 4.0 9.513363 3.1711210000000007 6.3422420000000015
65 2 -2.0 7.927802500000001 1.5855605000000004 11.098923500000001
66 2 -2.0 7.927802500000001 4.7566815 11.098923500000001
67 2 -2.0 7.927802500000001 4.7566815 7.927802500000001
68 2 -2.0 7.927802500000001 1.5855605000000004 7.927802500000001
69 2 -2.0 11.098923500000001 1.5855605000000004 7.927802500000001
70 2 -2.0 11.098923500000001 4.7566815 7.927802500000001
71 2 -2.0 11.098923500000001 4.7566815 11.098923500000001
72 2 -2.0 11.098923500000001 1.5855605000000004 11.098923500000001
73 1 4.0 6.3422420000000015 6.3422420000000015 0.0
74 1 4.0 6.3422420000000015 9.513363 3.1711210000000007
75 1 4.0 9.513363 6.3422420000000015 3.1711210000000007
76 1 4.0 9.513363 9.513363 0.0
77 2 -2.0 7.927802500000001 7.927802500000001 4.7566815
78 2 -2.0 7.927802500000001 11.098923500000001 4.7566815
79 2 -2.0 7.927802500000001 11.098923500000001 1.5855605000000004
80 2 -2.0 7.927802500000001 7.927802500000001 1.5855605000000004
81 2 -2.0 11.098923500000001 7.927802500000001 1.5855605000000004
82 2 -2.0 11.098923500000001 11.098923500000001 1.5855605000000004
83 2 -2.0 11.098923500000001 11.098923500000001 4.7566815
84 2 -2.0 11.098923500000001 7.927802500000001 4.7566815
85 1 4.0 6.3422420000000015 6.3422420000000015 6.3422420000000015
86 1 4.0 6.3422420000000015 9.513363 9.513363
87 1 4.0 9.513363 6.3422420000000015 9.513363
88 1 4.0 9.513363 9.513363 6.3422420000000015
89 2 -2.0 7.927802500000001 7.927802500000001 11.098923500000001
90 2 -2.0 7.927802500000001 11.098923500000001 11.098923500000001
91 2 -2.0 7.927802500000001 11.098923500000001 7.927802500000001
92 2 -2.0 7.927802500000001 7.927802500000001 7.927802500000001
93 2 -2.0 11.098923500000001 7.927802500000001 7.927802500000001
94 2 -2.0 11.098923500000001 11.098923500000001 7.927802500000001
95 2 -2.0 11.098923500000001 11.098923500000001 11.098923500000001
96 2 -2.0 11.098923500000001 7.927802500000001 11.098923500000001
