 # "Ce32 O64"
  
          96  atoms
           2  atom types
 
0.0 15.199511000000005 xlo xhi
0.0 15.199511000000005 ylo yhi
0.0 15.199511000000005 zlo zhi
 
Masses
 
            1   140.11600000            # Ce
            2   15.99900000             # O
 
Atoms
 
1 1 4.0 0.0 0.0 0.0
2 1 4.0 0.0 3.799877750000001 3.799877750000001
3 1 4.0 3.799877750000001 0.0 3.799877750000001
4 1 4.0 3.799877750000001 3.799877750000001 0.0
5 2 -2.0 1.8999388750000006 1.8999388750000006 5.699816625000001
6 2 -2.0 1.8999388750000006 5.699816625000001 5.699816625000001
7 2 -2.0 1.8999388750000006 5.699816625000001 1.8999388750000006
8 2 -2.0 1.8999388750000006 1.8999388750000006 1.8999388750000006
9 2 -2.0 5.699816625000001 1.8999388750000006 1.8999388750000006
10 2 -2.0 5.699816625000001 5.699816625000001 1.8999388750000006
11 2 -2.0 5.699816625000001 5.699816625000001 5.699816625000001
12 2 -2.0 5.699816625000001 1.8999388750000006 5.699816625000001
13 1 4.0 0.0 0.0 7.599755500000002
14 1 4.0 0.0 3.799877750000001 11.399633250000003
15 1 4.0 3.799877750000001 15.199511000000005 11.399633250000003
16 1 4.0 3.799877750000001 3.799877750000001 7.599755500000002
17 2 -2.0 1.8999388750000006 1.8999388750000006 13.299572125000005
18 2 -2.0 1.8999388750000006 5.699816625000001 13.299572125000005
19 2 -2.0 1.8999388750000006 5.699816625000001 9.499694375000002
20 2 -2.0 1.8999388750000006 1.8999388750000006 9.499694375000002
21 2 -2.0 5.699816625000001 1.8999388750000006 9.499694375000002
22 2 -2.0 5.699816625000001 5.699816625000001 9.499694375000002
23 2 -2.0 5.699816625000001 5.699816625000001 13.299572125000005
24 2 -2.0 5.699816625000001 1.8999388750000006 13.299572125000005
25 1 4.0 0.0 7.599755500000002 0.0
26 1 4.0 0.0 11.399633250000003 3.799877750000001
27 1 4.0 3.799877750000001 7.599755500000002 3.799877750000001
28 1 4.0 3.799877750000001 11.399633250000003 0.0
29 2 -2.0 1.8999388750000006 9.499694375000002 5.699816625000001
30 2 -2.0 1.8999388750000006 13.299572125000005 5.699816625000001
31 2 -2.0 1.8999388750000006 13.299572125000005 1.8999388750000006
32 2 -2.0 1.8999388750000006 9.499694375000002 1.8999388750000006
33 2 -2.0 5.699816625000001 9.499694375000002 1.8999388750000006
34 2 -2.0 5.699816625000001 13.299572125000005 1.8999388750000006
35 2 -2.0 5.699816625000001 13.299572125000005 5.699816625000001
36 2 -2.0 5.699816625000001 9.499694375000002 5.699816625000001
37 1 4.0 0.0 7.599755500000002 7.599755500000002
38 1 4.0 0.0 11.399633250000003 11.399633250000003
39 1 4.0 3.799877750000001 7.599755500000002 11.399633250000003
40 1 4.0 3.799877750000001 11.399633250000003 7.599755500000002
41 2 -2.0 1.8999388750000006 9.499694375000002 13.299572125000005
42 2 -2.0 1.8999388750000006 13.299572125000005 13.299572125000005
43 2 -2.0 1.8999388750000006 13.299572125000005 9.499694375000002
44 2 -2.0 1.8999388750000006 9.499694375000002 9.499694375000002
45 2 -2.0 5.699816625000001 9.499694375000002 9.499694375000002
46 2 -2.0 5.699816625000001 13.299572125000005 9.499694375000002
47 2 -2.0 5.699816625000001 13.299572125000005 13.299572125000005
48 2 -2.0 5.699816625000001 9.499694375000002 13.299572125000005
49 1 4.0 7.599755500000002 0.0 0.0
50 1 4.0 7.599755500000002 3.799877750000001 3.799877750000001
51 1 4.0 11.399633250000003 0.0 3.799877750000001
52 1 4.0 11.399633250000003 3.799877750000001 0.0
53 2 -2.0 9.499694375000002 1.8999388750000006 5.699816625000001
54 2 -2.0 9.499694375000002 5.699816625000001 5.699816625000001
55 2 -2.0 9.499694375000002 5.699816625000001 1.8999388750000006
56 2 -2.0 9.499694375000002 1.8999388750000006 1.8999388750000006
57 2 -2.0 13.299572125000005 1.8999388750000006 1.8999388750000006
58 2 -2.0 13.299572125000005 5.699816625000001 1.8999388750000006
59 2 -2.0 13.299572125000005 5.699816625000001 5.699816625000001
60 2 -2.0 13.299572125000005 1.8999388750000006 5.699816625000001
61 1 4.0 7.599755500000002 0.0 7.599755500000002
62 1 4.0 7.599755500000002 3.799877750000001 11.399633250000003
63 1 4.0 11.399633250000003 15.199511000000005 11.399633250000003
64 1 4.0 11.399633250000003 3.799877750000001 7.599755500000002
65 2 -2.0 9.499694375000002 1.8999388750000006 13.299572125000005
66 2 -2.0 9.499694375000002 5.699816625000001 13.299572125000005
67 2 -2.0 9.499694375000002 5.699816625000001 9.499694375000002
68 2 -2.0 9.499694375000002 1.8999388750000006 9.499694375000002
69 2 -2.0 13.299572125000005 1.8999388750000006 9.499694375000002
70 2 -2.0 13.299572125000005 5.699816625000001 9.499694375000002
71 2 -2.0 13.299572125000005 5.699816625000001 13.299572125000005
72 2 -2.0 13.299572125000005 1.8999388750000006 13.299572125000005
73 1 4.0 7.599755500000002 7.599755500000002 0.0
74 1 4.0 7.599755500000002 11.399633250000003 3.799877750000001
75 1 4.0 11.399633250000003 7.599755500000002 3.799877750000001
76 1 4.0 11.399633250000003 11.399633250000003 0.0
77 2 -2.0 9.499694375000002 9.499694375000002 5.699816625000001
78 2 -2.0 9.499694375000002 13.299572125000005 5.699816625000001
79 2 -2.0 9.499694375000002 13.299572125000005 1.8999388750000006
80 2 -2.0 9.499694375000002 9.499694375000002 1.8999388750000006
81 2 -2.0 13.299572125000005 9.499694375000002 1.8999388750000006
82 2 -2.0 13.299572125000005 13.299572125000005 1.8999388750000006
83 2 -2.0 13.299572125000005 13.299572125000005 5.699816625000001
84 2 -2.0 13.299572125000005 9.499694375000002 5.699816625000001
85 1 4.0 7.599755500000002 7.599755500000002 7.599755500000002
86 1 4.0 7.599755500000002 11.399633250000003 11.399633250000003
87 1 4.0 11.399633250000003 7.599755500000002 11.399633250000003
88 1 4.0 11.399633250000003 11.399633250000003 7.599755500000002
89 2 -2.0 9.499694375000002 9.499694375000002 13.299572125000005
90 2 -2.0 9.499694375000002 13.299572125000005 13.299572125000005
91 2 -2.0 9.499694375000002 13.299572125000005 9.499694375000002
92 2 -2.0 9.499694375000002 9.499694375000002 9.499694375000002
93 2 -2.0 13.299572125000005 9.499694375000002 9.499694375000002
94 2 -2.0 13.299572125000005 13.299572125000005 9.499694375000002
95 2 -2.0 13.299572125000005 13.299572125000005 13.299572125000005
96 2 -2.0 13.299572125000005 9.499694375000002 13.299572125000005
