 # Ce4 O8 File set up matches examples on github. 
  
          12  atoms
           2  atom types
 
0.0 6.014195000000001 xlo xhi
0.0 6.014195000000001 ylo yhi
0.0 6.014195000000001 zlo zhi
 
Masses
 
            1   140.11600000            # Ce
            2   15.99900000             # O
 
Atoms
 
1 1 4.000000 0.0 0.0 0.0
2 1 4.000000 0.0 3.0070975000000004 3.0070975000000004
3 1 4.000000 3.0070975000000004 0.0 3.0070975000000004
4 1 4.000000 3.0070975000000004 3.0070975000000004 0.0
5 2 -2.000000 1.5035487500000002 1.5035487500000002 4.51064625
6 2 -2.000000 1.5035487500000002 4.51064625 4.51064625
7 2 -2.000000 1.5035487500000002 4.51064625 1.5035487500000002
8 2 -2.000000 1.5035487500000002 1.5035487500000002 1.5035487500000002
9 2 -2.000000 4.51064625 1.5035487500000002 1.5035487500000002
10 2 -2.000000 4.51064625 4.51064625 1.5035487500000002
11 2 -2.000000 4.51064625 4.51064625 4.51064625
12 2 -2.000000 4.51064625 1.5035487500000002 4.51064625
