 # Ce4 O8 File set up matches examples on github. 
  
          12  atoms
           2  atom types
 
0.0 6.779638000000002 xlo xhi
0.0 6.779638000000002 ylo yhi
0.0 6.779638000000002 zlo zhi
 
Masses
 
            1   140.11600000            # Ce
            2   15.99900000             # O
 
Atoms
 
1 1 4.000000 0.0 0.0 0.0
2 1 4.000000 0.0 3.389819000000001 3.389819000000001
3 1 4.000000 3.389819000000001 0.0 3.389819000000001
4 1 4.000000 3.389819000000001 3.389819000000001 0.0
5 2 -2.000000 1.6949095000000005 1.6949095000000005 5.084728500000001
6 2 -2.000000 1.6949095000000005 5.084728500000001 5.084728500000001
7 2 -2.000000 1.6949095000000005 5.084728500000001 1.6949095000000005
8 2 -2.000000 1.6949095000000005 1.6949095000000005 1.6949095000000005
9 2 -2.000000 5.084728500000001 1.6949095000000005 1.6949095000000005
10 2 -2.000000 5.084728500000001 5.084728500000001 1.6949095000000005
11 2 -2.000000 5.084728500000001 5.084728500000001 5.084728500000001
12 2 -2.000000 5.084728500000001 1.6949095000000005 5.084728500000001
