 # Ce4 O8 File set up matches examples on github. 
  
          12  atoms
           2  atom types
 
0.0 5.3034265000000005 xlo xhi
0.0 5.3034265000000005 ylo yhi
0.0 5.3034265000000005 zlo zhi
 
Masses
 
            1   140.11600000            # Ce
            2   15.99900000             # O
 
Atoms
 
1 1 4.000000 0.0 0.0 0.0
2 1 4.000000 0.0 2.6517132500000002 2.6517132500000002
3 1 4.000000 2.6517132500000002 0.0 2.6517132500000002
4 1 4.000000 2.6517132500000002 2.6517132500000002 0.0
5 2 -2.000000 1.3258566250000001 1.3258566250000001 3.9775698749999995
6 2 -2.000000 1.3258566250000001 3.9775698749999995 3.9775698749999995
7 2 -2.000000 1.3258566250000001 3.9775698749999995 1.3258566250000001
8 2 -2.000000 1.3258566250000001 1.3258566250000001 1.3258566250000001
9 2 -2.000000 3.9775698749999995 1.3258566250000001 1.3258566250000001
10 2 -2.000000 3.9775698749999995 3.9775698749999995 1.3258566250000001
11 2 -2.000000 3.9775698749999995 3.9775698749999995 3.9775698749999995
12 2 -2.000000 3.9775698749999995 1.3258566250000001 3.9775698749999995
