 # Ce4 O8 File set up matches examples on github. 
  
          12  atoms
           2  atom types
 
0.0 5.5221245 xlo xhi
0.0 5.5221245 ylo yhi
0.0 5.5221245 zlo zhi
 
Masses
 
            1   140.11600000            # Ce
            2   15.99900000             # O
 
Atoms
 
1 1 4.000000 0.0 0.0 0.0
2 1 4.000000 0.0 2.76106225 2.76106225
3 1 4.000000 2.76106225 0.0 2.76106225
4 1 4.000000 2.76106225 2.76106225 0.0
5 2 -2.000000 1.380531125 1.380531125 4.141593374999999
6 2 -2.000000 1.380531125 4.141593374999999 4.141593374999999
7 2 -2.000000 1.380531125 4.141593374999999 1.380531125
8 2 -2.000000 1.380531125 1.380531125 1.380531125
9 2 -2.000000 4.141593374999999 1.380531125 1.380531125
10 2 -2.000000 4.141593374999999 4.141593374999999 1.380531125
11 2 -2.000000 4.141593374999999 4.141593374999999 4.141593374999999
12 2 -2.000000 4.141593374999999 1.380531125 4.141593374999999
