 # Ce4 O8 File set up matches examples on github. 
  
          12  atoms
           2  atom types
 
0.0 5.959520500000001 xlo xhi
0.0 5.959520500000001 ylo yhi
0.0 5.959520500000001 zlo zhi
 
Masses
 
            1   140.11600000            # Ce
            2   15.99900000             # O
 
Atoms
 
1 1 4.000000 0.0 0.0 0.0
2 1 4.000000 0.0 2.9797602500000004 2.9797602500000004
3 1 4.000000 2.9797602500000004 0.0 2.9797602500000004
4 1 4.000000 2.9797602500000004 2.9797602500000004 0.0
5 2 -2.000000 1.4898801250000002 1.4898801250000002 4.469640375
6 2 -2.000000 1.4898801250000002 4.469640375 4.469640375
7 2 -2.000000 1.4898801250000002 4.469640375 1.4898801250000002
8 2 -2.000000 1.4898801250000002 1.4898801250000002 1.4898801250000002
9 2 -2.000000 4.469640375 1.4898801250000002 1.4898801250000002
10 2 -2.000000 4.469640375 4.469640375 1.4898801250000002
11 2 -2.000000 4.469640375 4.469640375 4.469640375
12 2 -2.000000 4.469640375 1.4898801250000002 4.469640375
