 # Ce4 O8 File set up matches examples on github. 
  
          12  atoms
           2  atom types
 
0.0 6.2875675000000015 xlo xhi
0.0 6.2875675000000015 ylo yhi
0.0 6.2875675000000015 zlo zhi
 
Masses
 
            1   140.11600000            # Ce
            2   15.99900000             # O
 
Atoms
 
1 1 4.000000 0.0 0.0 0.0
2 1 4.000000 0.0 3.1437837500000008 3.1437837500000008
3 1 4.000000 3.1437837500000008 0.0 3.1437837500000008
4 1 4.000000 3.1437837500000008 3.1437837500000008 0.0
5 2 -2.000000 1.5718918750000004 1.5718918750000004 4.715675625
6 2 -2.000000 1.5718918750000004 4.715675625 4.715675625
7 2 -2.000000 1.5718918750000004 4.715675625 1.5718918750000004
8 2 -2.000000 1.5718918750000004 1.5718918750000004 1.5718918750000004
9 2 -2.000000 4.715675625 1.5718918750000004 1.5718918750000004
10 2 -2.000000 4.715675625 4.715675625 1.5718918750000004
11 2 -2.000000 4.715675625 4.715675625 4.715675625
12 2 -2.000000 4.715675625 1.5718918750000004 4.715675625
