 # Ce4 O8 File set up matches examples on github. 
  
          12  atoms
           2  atom types
 
0.0 5.6314735 xlo xhi
0.0 5.6314735 ylo yhi
0.0 5.6314735 zlo zhi
 
Masses
 
            1   140.11600000            # Ce
            2   15.99900000             # O
 
Atoms
 
1 1 4.000000 0.0 0.0 0.0
2 1 4.000000 0.0 2.81573675 2.81573675
3 1 4.000000 2.81573675 0.0 2.81573675
4 1 4.000000 2.81573675 2.81573675 0.0
5 2 -2.000000 1.407868375 1.407868375 4.223605125
6 2 -2.000000 1.407868375 4.223605125 4.223605125
7 2 -2.000000 1.407868375 4.223605125 1.407868375
8 2 -2.000000 1.407868375 1.407868375 1.407868375
9 2 -2.000000 4.223605125 1.407868375 1.407868375
10 2 -2.000000 4.223605125 4.223605125 1.407868375
11 2 -2.000000 4.223605125 4.223605125 4.223605125
12 2 -2.000000 4.223605125 1.407868375 4.223605125
