 # Ce4 O8 File set up matches examples on github. 
  
          12  atoms
           2  atom types
 
0.0 6.615614500000001 xlo xhi
0.0 6.615614500000001 ylo yhi
0.0 6.615614500000001 zlo zhi
 
Masses
 
            1   140.11600000            # Ce
            2   15.99900000             # O
 
Atoms
 
1 1 4.000000 0.0 0.0 0.0
2 1 4.000000 0.0 3.3078072500000006 3.3078072500000006
3 1 4.000000 3.3078072500000006 0.0 3.3078072500000006
4 1 4.000000 3.3078072500000006 3.3078072500000006 0.0
5 2 -2.000000 1.6539036250000003 1.6539036250000003 4.9617108750000005
6 2 -2.000000 1.6539036250000003 4.9617108750000005 4.9617108750000005
7 2 -2.000000 1.6539036250000003 4.9617108750000005 1.6539036250000003
8 2 -2.000000 1.6539036250000003 1.6539036250000003 1.6539036250000003
9 2 -2.000000 4.9617108750000005 1.6539036250000003 1.6539036250000003
10 2 -2.000000 4.9617108750000005 4.9617108750000005 1.6539036250000003
11 2 -2.000000 4.9617108750000005 4.9617108750000005 4.9617108750000005
12 2 -2.000000 4.9617108750000005 1.6539036250000003 4.9617108750000005
