ITEM: TIMESTEP
0
ITEM: NUMBER OF ATOMS
96
ITEM: BOX BOUNDS pp pp pp
0.0000000000000000e+00 1.3668625000000004e+01
0.0000000000000000e+00 1.3668625000000004e+01
0.0000000000000000e+00 1.3668625000000004e+01
ITEM: ATOMS id type xs ys zs
1 1 0 0 0
2 1 0 0.25 0.25
3 1 0.25 0 0.25
4 1 0.25 0.25 0
5 2 0.125 0.125 0.375
6 2 0.125 0.375 0.375
7 2 0.125 0.375 0.125
8 2 0.125 0.125 0.125
9 2 0.375 0.125 0.125
10 2 0.375 0.375 0.125
11 2 0.375 0.375 0.375
12 2 0.375 0.125 0.375
13 1 0.5 0 0
14 1 0.5 0.25 0.25
15 1 0.75 0 0.25
16 1 0.75 0.25 0
17 2 0.625 0.125 0.375
18 2 0.625 0.375 0.375
19 2 0.625 0.375 0.125
20 2 0.625 0.125 0.125
21 2 0.875 0.125 0.125
22 2 0.875 0.375 0.125
23 2 0.875 0.375 0.375
24 2 0.875 0.125 0.375
25 1 0 0.5 0
26 1 0 0.75 0.25
27 1 0.25 0.5 0.25
28 1 0.25 0.75 0
29 2 0.125 0.625 0.375
30 2 0.125 0.875 0.375
31 2 0.125 0.875 0.125
32 2 0.125 0.625 0.125
33 2 0.375 0.625 0.125
34 2 0.375 0.875 0.125
35 2 0.375 0.875 0.375
36 2 0.375 0.625 0.375
37 1 0.5 0.5 0
38 1 0.5 0.75 0.25
39 1 0.75 0.5 0.25
40 1 0.75 0.75 0
41 2 0.625 0.625 0.375
42 2 0.625 0.875 0.375
43 2 0.625 0.875 0.125
44 2 0.625 0.625 0.125
45 2 0.875 0.625 0.125
46 2 0.875 0.875 0.125
47 2 0.875 0.875 0.375
48 2 0.875 0.625 0.375
49 1 0 0 0.5
50 1 0 0.25 0.75
51 1 0.25 0 0.75
52 1 0.25 0.25 0.5
53 2 0.125 0.125 0.875
54 2 0.125 0.375 0.875
55 2 0.125 0.375 0.625
56 2 0.125 0.125 0.625
57 2 0.375 0.125 0.625
58 2 0.375 0.375 0.625
59 2 0.375 0.375 0.875
60 2 0.375 0.125 0.875
61 1 0.5 0 0.5
62 1 0.5 0.25 0.75
63 1 0.75 0 0.75
64 1 0.75 0.25 0.5
65 2 0.625 0.125 0.875
66 2 0.625 0.375 0.875
67 2 0.625 0.375 0.625
68 2 0.625 0.125 0.625
69 2 0.875 0.125 0.625
70 2 0.875 0.375 0.625
71 2 0.875 0.375 0.875
72 2 0.875 0.125 0.875
73 1 0 0.5 0.5
74 1 0 0.75 0.75
75 1 0.25 0.5 0.75
76 1 0.25 0.75 0.5
77 2 0.125 0.625 0.875
78 2 0.125 0.875 0.875
79 2 0.125 0.875 0.625
80 2 0.125 0.625 0.625
81 2 0.375 0.625 0.625
82 2 0.375 0.875 0.625
83 2 0.375 0.875 0.875
84 2 0.375 0.625 0.875
85 1 0.5 0.5 0.5
86 1 0.5 0.75 0.75
87 1 0.75 0.5 0.75
88 1 0.75 0.75 0.5
89 2 0.625 0.625 0.875
90 2 0.625 0.875 0.875
91 2 0.625 0.875 0.625
92 2 0.625 0.625 0.625
93 2 0.875 0.625 0.625
94 2 0.875 0.875 0.625
95 2 0.875 0.875 0.875
96 2 0.875 0.625 0.875
ITEM: TIMESTEP
1
ITEM: NUMBER OF ATOMS
96
ITEM: BOX BOUNDS pp pp pp
0.0000000000000000e+00 1.3668625000000004e+01
0.0000000000000000e+00 1.3668625000000004e+01
0.0000000000000000e+00 1.3668625000000004e+01
ITEM: ATOMS id type xs ys zs
1 1 1.2476e-14 1.22161e-14 9.61694e-15
2 1 5.19835e-16 0.25 0.25
3 1 0.25 0 0.25
4 1 0.25 0.25 0
5 2 0.125 0.125 0.375
6 2 0.125 0.375 0.375
7 2 0.125 0.375 0.125
8 2 0.125 0.125 0.125
9 2 0.375 0.125 0.125
10 2 0.375 0.375 0.125
11 2 0.375 0.375 0.375
12 2 0.375 0.125 0.375
13 1 0.5 1.81942e-14 1.71545e-14
14 1 0.5 0.25 0.25
15 1 0.75 2.15671e-14 0.25
16 1 0.75 0.25 1.48092e-14
17 2 0.625 0.125 0.375
18 2 0.625 0.375 0.375
19 2 0.625 0.375 0.125
20 2 0.625 0.125 0.125
21 2 0.875 0.125 0.125
22 2 0.875 0.375 0.125
23 2 0.875 0.375 0.375
24 2 0.875 0.125 0.375
25 1 1.5855e-14 0.5 1.76744e-14
26 1 2.49521e-14 0.75 0.25
27 1 0.25 0.5 0.25
28 1 0.25 0.75 1.48092e-14
29 2 0.125 0.625 0.375
30 2 0.125 0.875 0.375
31 2 0.125 0.875 0.125
32 2 0.125 0.625 0.125
33 2 0.375 0.625 0.125
34 2 0.375 0.875 0.125
35 2 0.375 0.875 0.375
36 2 0.375 0.625 0.375
37 1 0.5 0.5 2.70314e-14
38 1 0.5 0.75 0.25
39 1 0.75 0.5 0.25
40 1 0.75 0.75 3.16957e-14
41 2 0.625 0.625 0.375
42 2 0.625 0.875 0.375
43 2 0.625 0.875 0.125
44 2 0.625 0.625 0.125
45 2 0.875 0.625 0.125
46 2 0.875 0.875 0.125
47 2 0.875 0.875 0.375
48 2 0.875 0.625 0.375
49 1 1.61149e-14 1.71545e-14 0.5
50 1 1.50752e-14 0.25 0.75
51 1 0.25 1.45554e-14 0.75
52 1 0.25 0.25 0.5
53 2 0.125 0.125 0.875
54 2 0.125 0.375 0.875
55 2 0.125 0.375 0.625
56 2 0.125 0.125 0.625
57 2 0.375 0.125 0.625
58 2 0.375 0.375 0.625
59 2 0.375 0.375 0.875
60 2 0.375 0.125 0.875
61 1 0.5 2.70314e-14 0.5
62 1 0.5 0.25 0.75
63 1 0.75 4.13198e-14 0.75
64 1 0.75 0.25 0.5
65 2 0.625 0.125 0.875
66 2 0.625 0.375 0.875
67 2 0.625 0.375 0.625
68 2 0.625 0.125 0.625
69 2 0.875 0.125 0.625
70 2 0.875 0.375 0.625
71 2 0.875 0.375 0.875
72 2 0.875 0.125 0.875
73 1 2.28727e-14 0.5 0.5
74 1 4.21066e-14 0.75 0.75
75 1 0.25 0.5 0.75
76 1 0.25 0.75 0.5
77 2 0.125 0.625 0.875
78 2 0.125 0.875 0.875
79 2 0.125 0.875 0.625
80 2 0.125 0.625 0.625
81 2 0.375 0.625 0.625
82 2 0.375 0.875 0.625
83 2 0.375 0.875 0.875
84 2 0.375 0.625 0.875
85 1 0.5 0.5 0.5
86 1 0.5 0.75 0.75
87 1 0.75 0.5 0.75
88 1 0.75 0.75 0.5
89 2 0.625 0.625 0.875
90 2 0.625 0.875 0.875
91 2 0.625 0.875 0.625
92 2 0.625 0.625 0.625
93 2 0.875 0.625 0.625
94 2 0.875 0.875 0.625
95 2 0.875 0.875 0.875
96 2 0.875 0.625 0.875
