ITEM: TIMESTEP
0
ITEM: NUMBER OF ATOMS
768
ITEM: BOX BOUNDS pp pp pp
0.0000000000000000e+00 2.7337250000000008e+01
0.0000000000000000e+00 2.7337250000000008e+01
0.0000000000000000e+00 2.7337250000000008e+01
ITEM: ATOMS id type xs ys zs
1 1 0 0 0
2 1 0 0.125 0.125
3 1 0.125 0 0.125
4 1 0.125 0.125 0
5 2 0.0625 0.0625 0.1875
6 2 0.0625 0.1875 0.1875
7 2 0.0625 0.1875 0.0625
8 2 0.0625 0.0625 0.0625
9 2 0.1875 0.0625 0.0625
10 2 0.1875 0.1875 0.0625
11 2 0.1875 0.1875 0.1875
12 2 0.1875 0.0625 0.1875
13 1 0.25 0 0
14 1 0.25 0.125 0.125
15 1 0.375 0 0.125
16 1 0.375 0.125 0
17 2 0.3125 0.0625 0.1875
18 2 0.3125 0.1875 0.1875
19 2 0.3125 0.1875 0.0625
20 2 0.3125 0.0625 0.0625
21 2 0.4375 0.0625 0.0625
22 2 0.4375 0.1875 0.0625
23 2 0.4375 0.1875 0.1875
24 2 0.4375 0.0625 0.1875
25 1 0.5 0 0
26 1 0.5 0.125 0.125
27 1 0.625 0 0.125
28 1 0.625 0.125 0
29 2 0.5625 0.0625 0.1875
30 2 0.5625 0.1875 0.1875
31 2 0.5625 0.1875 0.0625
32 2 0.5625 0.0625 0.0625
33 2 0.6875 0.0625 0.0625
34 2 0.6875 0.1875 0.0625
35 2 0.6875 0.1875 0.1875
36 2 0.6875 0.0625 0.1875
37 1 0.75 0 0
38 1 0.75 0.125 0.125
39 1 0.875 0 0.125
40 1 0.875 0.125 0
41 2 0.8125 0.0625 0.1875
42 2 0.8125 0.1875 0.1875
43 2 0.8125 0.1875 0.0625
44 2 0.8125 0.0625 0.0625
45 2 0.9375 0.0625 0.0625
46 2 0.9375 0.1875 0.0625
47 2 0.9375 0.1875 0.1875
48 2 0.9375 0.0625 0.1875
49 1 0 0.25 0
50 1 0 0.375 0.125
51 1 0.125 0.25 0.125
52 1 0.125 0.375 0
53 2 0.0625 0.3125 0.1875
54 2 0.0625 0.4375 0.1875
55 2 0.0625 0.4375 0.0625
56 2 0.0625 0.3125 0.0625
57 2 0.1875 0.3125 0.0625
58 2 0.1875 0.4375 0.0625
59 2 0.1875 0.4375 0.1875
60 2 0.1875 0.3125 0.1875
61 1 0.25 0.25 0
62 1 0.25 0.375 0.125
63 1 0.375 0.25 0.125
64 1 0.375 0.375 0
65 2 0.3125 0.3125 0.1875
66 2 0.3125 0.4375 0.1875
67 2 0.3125 0.4375 0.0625
68 2 0.3125 0.3125 0.0625
69 2 0.4375 0.3125 0.0625
70 2 0.4375 0.4375 0.0625
71 2 0.4375 0.4375 0.1875
72 2 0.4375 0.3125 0.1875
73 1 0.5 0.25 0
74 1 0.5 0.375 0.125
75 1 0.625 0.25 0.125
76 1 0.625 0.375 0
77 2 0.5625 0.3125 0.1875
78 2 0.5625 0.4375 0.1875
79 2 0.5625 0.4375 0.0625
80 2 0.5625 0.3125 0.0625
81 2 0.6875 0.3125 0.0625
82 2 0.6875 0.4375 0.0625
83 2 0.6875 0.4375 0.1875
84 2 0.6875 0.3125 0.1875
85 1 0.75 0.25 0
86 1 0.75 0.375 0.125
87 1 0.875 0.25 0.125
88 1 0.875 0.375 0
89 2 0.8125 0.3125 0.1875
90 2 0.8125 0.4375 0.1875
91 2 0.8125 0.4375 0.0625
92 2 0.8125 0.3125 0.0625
93 2 0.9375 0.3125 0.0625
94 2 0.9375 0.4375 0.0625
95 2 0.9375 0.4375 0.1875
96 2 0.9375 0.3125 0.1875
97 1 0 0.5 0
98 1 0 0.625 0.125
99 1 0.125 0.5 0.125
100 1 0.125 0.625 0
101 2 0.0625 0.5625 0.1875
102 2 0.0625 0.6875 0.1875
103 2 0.0625 0.6875 0.0625
104 2 0.0625 0.5625 0.0625
105 2 0.1875 0.5625 0.0625
106 2 0.1875 0.6875 0.0625
107 2 0.1875 0.6875 0.1875
108 2 0.1875 0.5625 0.1875
109 1 0.25 0.5 0
110 1 0.25 0.625 0.125
111 1 0.375 0.5 0.125
112 1 0.375 0.625 0
113 2 0.3125 0.5625 0.1875
114 2 0.3125 0.6875 0.1875
115 2 0.3125 0.6875 0.0625
116 2 0.3125 0.5625 0.0625
117 2 0.4375 0.5625 0.0625
118 2 0.4375 0.6875 0.0625
119 2 0.4375 0.6875 0.1875
120 2 0.4375 0.5625 0.1875
121 1 0.5 0.5 0
122 1 0.5 0.625 0.125
123 1 0.625 0.5 0.125
124 1 0.625 0.625 0
125 2 0.5625 0.5625 0.1875
126 2 0.5625 0.6875 0.1875
127 2 0.5625 0.6875 0.0625
128 2 0.5625 0.5625 0.0625
129 2 0.6875 0.5625 0.0625
130 2 0.6875 0.6875 0.0625
131 2 0.6875 0.6875 0.1875
132 2 0.6875 0.5625 0.1875
133 1 0.75 0.5 0
134 1 0.75 0.625 0.125
135 1 0.875 0.5 0.125
136 1 0.875 0.625 0
137 2 0.8125 0.5625 0.1875
138 2 0.8125 0.6875 0.1875
139 2 0.8125 0.6875 0.0625
140 2 0.8125 0.5625 0.0625
141 2 0.9375 0.5625 0.0625
142 2 0.9375 0.6875 0.0625
143 2 0.9375 0.6875 0.1875
144 2 0.9375 0.5625 0.1875
145 1 0 0.75 0
146 1 0 0.875 0.125
147 1 0.125 0.75 0.125
148 1 0.125 0.875 0
149 2 0.0625 0.8125 0.1875
150 2 0.0625 0.9375 0.1875
151 2 0.0625 0.9375 0.0625
152 2 0.0625 0.8125 0.0625
153 2 0.1875 0.8125 0.0625
154 2 0.1875 0.9375 0.0625
155 2 0.1875 0.9375 0.1875
156 2 0.1875 0.8125 0.1875
157 1 0.25 0.75 0
158 1 0.25 0.875 0.125
159 1 0.375 0.75 0.125
160 1 0.375 0.875 0
161 2 0.3125 0.8125 0.1875
162 2 0.3125 0.9375 0.1875
163 2 0.3125 0.9375 0.0625
164 2 0.3125 0.8125 0.0625
165 2 0.4375 0.8125 0.0625
166 2 0.4375 0.9375 0.0625
167 2 0.4375 0.9375 0.1875
168 2 0.4375 0.8125 0.1875
169 1 0.5 0.75 0
170 1 0.5 0.875 0.125
171 1 0.625 0.75 0.125
172 1 0.625 0.875 0
173 2 0.5625 0.8125 0.1875
174 2 0.5625 0.9375 0.1875
175 2 0.5625 0.9375 0.0625
176 2 0.5625 0.8125 0.0625
177 2 0.6875 0.8125 0.0625
178 2 0.6875 0.9375 0.0625
179 2 0.6875 0.9375 0.1875
180 2 0.6875 0.8125 0.1875
181 1 0.75 0.75 0
182 1 0.75 0.875 0.125
183 1 0.875 0.75 0.125
184 1 0.875 0.875 0
185 2 0.8125 0.8125 0.1875
186 2 0.8125 0.9375 0.1875
187 2 0.8125 0.9375 0.0625
188 2 0.8125 0.8125 0.0625
189 2 0.9375 0.8125 0.0625
190 2 0.9375 0.9375 0.0625
191 2 0.9375 0.9375 0.1875
192 2 0.9375 0.8125 0.1875
193 1 0 0 0.25
194 1 0 0.125 0.375
195 1 0.125 0 0.375
196 1 0.125 0.125 0.25
197 2 0.0625 0.0625 0.4375
198 2 0.0625 0.1875 0.4375
199 2 0.0625 0.1875 0.3125
200 2 0.0625 0.0625 0.3125
201 2 0.1875 0.0625 0.3125
202 2 0.1875 0.1875 0.3125
203 2 0.1875 0.1875 0.4375
204 2 0.1875 0.0625 0.4375
205 1 0.25 0 0.25
206 1 0.25 0.125 0.375
207 1 0.375 0 0.375
208 1 0.375 0.125 0.25
209 2 0.3125 0.0625 0.4375
210 2 0.3125 0.1875 0.4375
211 2 0.3125 0.1875 0.3125
212 2 0.3125 0.0625 0.3125
213 2 0.4375 0.0625 0.3125
214 2 0.4375 0.1875 0.3125
215 2 0.4375 0.1875 0.4375
216 2 0.4375 0.0625 0.4375
217 1 0.5 0 0.25
218 1 0.5 0.125 0.375
219 1 0.625 0 0.375
220 1 0.625 0.125 0.25
221 2 0.5625 0.0625 0.4375
222 2 0.5625 0.1875 0.4375
223 2 0.5625 0.1875 0.3125
224 2 0.5625 0.0625 0.3125
225 2 0.6875 0.0625 0.3125
226 2 0.6875 0.1875 0.3125
227 2 0.6875 0.1875 0.4375
228 2 0.6875 0.0625 0.4375
229 1 0.75 0 0.25
230 1 0.75 0.125 0.375
231 1 0.875 0 0.375
232 1 0.875 0.125 0.25
233 2 0.8125 0.0625 0.4375
234 2 0.8125 0.1875 0.4375
235 2 0.8125 0.1875 0.3125
236 2 0.8125 0.0625 0.3125
237 2 0.9375 0.0625 0.3125
238 2 0.9375 0.1875 0.3125
239 2 0.9375 0.1875 0.4375
240 2 0.9375 0.0625 0.4375
241 1 0 0.25 0.25
242 1 0 0.375 0.375
243 1 0.125 0.25 0.375
244 1 0.125 0.375 0.25
245 2 0.0625 0.3125 0.4375
246 2 0.0625 0.4375 0.4375
247 2 0.0625 0.4375 0.3125
248 2 0.0625 0.3125 0.3125
249 2 0.1875 0.3125 0.3125
250 2 0.1875 0.4375 0.3125
251 2 0.1875 0.4375 0.4375
252 2 0.1875 0.3125 0.4375
253 1 0.25 0.25 0.25
254 1 0.25 0.375 0.375
255 1 0.375 0.25 0.375
256 1 0.375 0.375 0.25
257 2 0.3125 0.3125 0.4375
258 2 0.3125 0.4375 0.4375
259 2 0.3125 0.4375 0.3125
260 2 0.3125 0.3125 0.3125
261 2 0.4375 0.3125 0.3125
262 2 0.4375 0.4375 0.3125
263 2 0.4375 0.4375 0.4375
264 2 0.4375 0.3125 0.4375
265 1 0.5 0.25 0.25
266 1 0.5 0.375 0.375
267 1 0.625 0.25 0.375
268 1 0.625 0.375 0.25
269 2 0.5625 0.3125 0.4375
270 2 0.5625 0.4375 0.4375
271 2 0.5625 0.4375 0.3125
272 2 0.5625 0.3125 0.3125
273 2 0.6875 0.3125 0.3125
274 2 0.6875 0.4375 0.3125
275 2 0.6875 0.4375 0.4375
276 2 0.6875 0.3125 0.4375
277 1 0.75 0.25 0.25
278 1 0.75 0.375 0.375
279 1 0.875 0.25 0.375
280 1 0.875 0.375 0.25
281 2 0.8125 0.3125 0.4375
282 2 0.8125 0.4375 0.4375
283 2 0.8125 0.4375 0.3125
284 2 0.8125 0.3125 0.3125
285 2 0.9375 0.3125 0.3125
286 2 0.9375 0.4375 0.3125
287 2 0.9375 0.4375 0.4375
288 2 0.9375 0.3125 0.4375
289 1 0 0.5 0.25
290 1 0 0.625 0.375
291 1 0.125 0.5 0.375
292 1 0.125 0.625 0.25
293 2 0.0625 0.5625 0.4375
294 2 0.0625 0.6875 0.4375
295 2 0.0625 0.6875 0.3125
296 2 0.0625 0.5625 0.3125
297 2 0.1875 0.5625 0.3125
298 2 0.1875 0.6875 0.3125
299 2 0.1875 0.6875 0.4375
300 2 0.1875 0.5625 0.4375
301 1 0.25 0.5 0.25
302 1 0.25 0.625 0.375
303 1 0.375 0.5 0.375
304 1 0.375 0.625 0.25
305 2 0.3125 0.5625 0.4375
306 2 0.3125 0.6875 0.4375
307 2 0.3125 0.6875 0.3125
308 2 0.3125 0.5625 0.3125
309 2 0.4375 0.5625 0.3125
310 2 0.4375 0.6875 0.3125
311 2 0.4375 0.6875 0.4375
312 2 0.4375 0.5625 0.4375
313 1 0.5 0.5 0.25
314 1 0.5 0.625 0.375
315 1 0.625 0.5 0.375
316 1 0.625 0.625 0.25
317 2 0.5625 0.5625 0.4375
318 2 0.5625 0.6875 0.4375
319 2 0.5625 0.6875 0.3125
320 2 0.5625 0.5625 0.3125
321 2 0.6875 0.5625 0.3125
322 2 0.6875 0.6875 0.3125
323 2 0.6875 0.6875 0.4375
324 2 0.6875 0.5625 0.4375
325 1 0.75 0.5 0.25
326 1 0.75 0.625 0.375
327 1 0.875 0.5 0.375
328 1 0.875 0.625 0.25
329 2 0.8125 0.5625 0.4375
330 2 0.8125 0.6875 0.4375
331 2 0.8125 0.6875 0.3125
332 2 0.8125 0.5625 0.3125
333 2 0.9375 0.5625 0.3125
334 2 0.9375 0.6875 0.3125
335 2 0.9375 0.6875 0.4375
336 2 0.9375 0.5625 0.4375
337 1 0 0.75 0.25
338 1 0 0.875 0.375
339 1 0.125 0.75 0.375
340 1 0.125 0.875 0.25
341 2 0.0625 0.8125 0.4375
342 2 0.0625 0.9375 0.4375
343 2 0.0625 0.9375 0.3125
344 2 0.0625 0.8125 0.3125
345 2 0.1875 0.8125 0.3125
346 2 0.1875 0.9375 0.3125
347 2 0.1875 0.9375 0.4375
348 2 0.1875 0.8125 0.4375
349 1 0.25 0.75 0.25
350 1 0.25 0.875 0.375
351 1 0.375 0.75 0.375
352 1 0.375 0.875 0.25
353 2 0.3125 0.8125 0.4375
354 2 0.3125 0.9375 0.4375
355 2 0.3125 0.9375 0.3125
356 2 0.3125 0.8125 0.3125
357 2 0.4375 0.8125 0.3125
358 2 0.4375 0.9375 0.3125
359 2 0.4375 0.9375 0.4375
360 2 0.4375 0.8125 0.4375
361 1 0.5 0.75 0.25
362 1 0.5 0.875 0.375
363 1 0.625 0.75 0.375
364 1 0.625 0.875 0.25
365 2 0.5625 0.8125 0.4375
366 2 0.5625 0.9375 0.4375
367 2 0.5625 0.9375 0.3125
368 2 0.5625 0.8125 0.3125
369 2 0.6875 0.8125 0.3125
370 2 0.6875 0.9375 0.3125
371 2 0.6875 0.9375 0.4375
372 2 0.6875 0.8125 0.4375
373 1 0.75 0.75 0.25
374 1 0.75 0.875 0.375
375 1 0.875 0.75 0.375
376 1 0.875 0.875 0.25
377 2 0.8125 0.8125 0.4375
378 2 0.8125 0.9375 0.4375
379 2 0.8125 0.9375 0.3125
380 2 0.8125 0.8125 0.3125
381 2 0.9375 0.8125 0.3125
382 2 0.9375 0.9375 0.3125
383 2 0.9375 0.9375 0.4375
384 2 0.9375 0.8125 0.4375
385 1 0 0 0.5
386 1 0 0.125 0.625
387 1 0.125 0 0.625
388 1 0.125 0.125 0.5
389 2 0.0625 0.0625 0.6875
390 2 0.0625 0.1875 0.6875
391 2 0.0625 0.1875 0.5625
392 2 0.0625 0.0625 0.5625
393 2 0.1875 0.0625 0.5625
394 2 0.1875 0.1875 0.5625
395 2 0.1875 0.1875 0.6875
396 2 0.1875 0.0625 0.6875
397 1 0.25 0 0.5
398 1 0.25 0.125 0.625
399 1 0.375 0 0.625
400 1 0.375 0.125 0.5
401 2 0.3125 0.0625 0.6875
402 2 0.3125 0.1875 0.6875
403 2 0.3125 0.1875 0.5625
404 2 0.3125 0.0625 0.5625
405 2 0.4375 0.0625 0.5625
406 2 0.4375 0.1875 0.5625
407 2 0.4375 0.1875 0.6875
408 2 0.4375 0.0625 0.6875
409 1 0.5 0 0.5
410 1 0.5 0.125 0.625
411 1 0.625 0 0.625
412 1 0.625 0.125 0.5
413 2 0.5625 0.0625 0.6875
414 2 0.5625 0.1875 0.6875
415 2 0.5625 0.1875 0.5625
416 2 0.5625 0.0625 0.5625
417 2 0.6875 0.0625 0.5625
418 2 0.6875 0.1875 0.5625
419 2 0.6875 0.1875 0.6875
420 2 0.6875 0.0625 0.6875
421 1 0.75 0 0.5
422 1 0.75 0.125 0.625
423 1 0.875 0 0.625
424 1 0.875 0.125 0.5
425 2 0.8125 0.0625 0.6875
426 2 0.8125 0.1875 0.6875
427 2 0.8125 0.1875 0.5625
428 2 0.8125 0.0625 0.5625
429 2 0.9375 0.0625 0.5625
430 2 0.9375 0.1875 0.5625
431 2 0.9375 0.1875 0.6875
432 2 0.9375 0.0625 0.6875
433 1 0 0.25 0.5
434 1 0 0.375 0.625
435 1 0.125 0.25 0.625
436 1 0.125 0.375 0.5
437 2 0.0625 0.3125 0.6875
438 2 0.0625 0.4375 0.6875
439 2 0.0625 0.4375 0.5625
440 2 0.0625 0.3125 0.5625
441 2 0.1875 0.3125 0.5625
442 2 0.1875 0.4375 0.5625
443 2 0.1875 0.4375 0.6875
444 2 0.1875 0.3125 0.6875
445 1 0.25 0.25 0.5
446 1 0.25 0.375 0.625
447 1 0.375 0.25 0.625
448 1 0.375 0.375 0.5
449 2 0.3125 0.3125 0.6875
450 2 0.3125 0.4375 0.6875
451 2 0.3125 0.4375 0.5625
452 2 0.3125 0.3125 0.5625
453 2 0.4375 0.3125 0.5625
454 2 0.4375 0.4375 0.5625
455 2 0.4375 0.4375 0.6875
456 2 0.4375 0.3125 0.6875
457 1 0.5 0.25 0.5
458 1 0.5 0.375 0.625
459 1 0.625 0.25 0.625
460 1 0.625 0.375 0.5
461 2 0.5625 0.3125 0.6875
462 2 0.5625 0.4375 0.6875
463 2 0.5625 0.4375 0.5625
464 2 0.5625 0.3125 0.5625
465 2 0.6875 0.3125 0.5625
466 2 0.6875 0.4375 0.5625
467 2 0.6875 0.4375 0.6875
468 2 0.6875 0.3125 0.6875
469 1 0.75 0.25 0.5
470 1 0.75 0.375 0.625
471 1 0.875 0.25 0.625
472 1 0.875 0.375 0.5
473 2 0.8125 0.3125 0.6875
474 2 0.8125 0.4375 0.6875
475 2 0.8125 0.4375 0.5625
476 2 0.8125 0.3125 0.5625
477 2 0.9375 0.3125 0.5625
478 2 0.9375 0.4375 0.5625
479 2 0.9375 0.4375 0.6875
480 2 0.9375 0.3125 0.6875
481 1 0 0.5 0.5
482 1 0 0.625 0.625
483 1 0.125 0.5 0.625
484 1 0.125 0.625 0.5
485 2 0.0625 0.5625 0.6875
486 2 0.0625 0.6875 0.6875
487 2 0.0625 0.6875 0.5625
488 2 0.0625 0.5625 0.5625
489 2 0.1875 0.5625 0.5625
490 2 0.1875 0.6875 0.5625
491 2 0.1875 0.6875 0.6875
492 2 0.1875 0.5625 0.6875
493 1 0.25 0.5 0.5
494 1 0.25 0.625 0.625
495 1 0.375 0.5 0.625
496 1 0.375 0.625 0.5
497 2 0.3125 0.5625 0.6875
498 2 0.3125 0.6875 0.6875
499 2 0.3125 0.6875 0.5625
500 2 0.3125 0.5625 0.5625
501 2 0.4375 0.5625 0.5625
502 2 0.4375 0.6875 0.5625
503 2 0.4375 0.6875 0.6875
504 2 0.4375 0.5625 0.6875
505 1 0.5 0.5 0.5
506 1 0.5 0.625 0.625
507 1 0.625 0.5 0.625
508 1 0.625 0.625 0.5
509 2 0.5625 0.5625 0.6875
510 2 0.5625 0.6875 0.6875
511 2 0.5625 0.6875 0.5625
512 2 0.5625 0.5625 0.5625
513 2 0.6875 0.5625 0.5625
514 2 0.6875 0.6875 0.5625
515 2 0.6875 0.6875 0.6875
516 2 0.6875 0.5625 0.6875
517 1 0.75 0.5 0.5
518 1 0.75 0.625 0.625
519 1 0.875 0.5 0.625
520 1 0.875 0.625 0.5
521 2 0.8125 0.5625 0.6875
522 2 0.8125 0.6875 0.6875
523 2 0.8125 0.6875 0.5625
524 2 0.8125 0.5625 0.5625
525 2 0.9375 0.5625 0.5625
526 2 0.9375 0.6875 0.5625
527 2 0.9375 0.6875 0.6875
528 2 0.9375 0.5625 0.6875
529 1 0 0.75 0.5
530 1 0 0.875 0.625
531 1 0.125 0.75 0.625
532 1 0.125 0.875 0.5
533 2 0.0625 0.8125 0.6875
534 2 0.0625 0.9375 0.6875
535 2 0.0625 0.9375 0.5625
536 2 0.0625 0.8125 0.5625
537 2 0.1875 0.8125 0.5625
538 2 0.1875 0.9375 0.5625
539 2 0.1875 0.9375 0.6875
540 2 0.1875 0.8125 0.6875
541 1 0.25 0.75 0.5
542 1 0.25 0.875 0.625
543 1 0.375 0.75 0.625
544 1 0.375 0.875 0.5
545 2 0.3125 0.8125 0.6875
546 2 0.3125 0.9375 0.6875
547 2 0.3125 0.9375 0.5625
548 2 0.3125 0.8125 0.5625
549 2 0.4375 0.8125 0.5625
550 2 0.4375 0.9375 0.5625
551 2 0.4375 0.9375 0.6875
552 2 0.4375 0.8125 0.6875
553 1 0.5 0.75 0.5
554 1 0.5 0.875 0.625
555 1 0.625 0.75 0.625
556 1 0.625 0.875 0.5
557 2 0.5625 0.8125 0.6875
558 2 0.5625 0.9375 0.6875
559 2 0.5625 0.9375 0.5625
560 2 0.5625 0.8125 0.5625
561 2 0.6875 0.8125 0.5625
562 2 0.6875 0.9375 0.5625
563 2 0.6875 0.9375 0.6875
564 2 0.6875 0.8125 0.6875
565 1 0.75 0.75 0.5
566 1 0.75 0.875 0.625
567 1 0.875 0.75 0.625
568 1 0.875 0.875 0.5
569 2 0.8125 0.8125 0.6875
570 2 0.8125 0.9375 0.6875
571 2 0.8125 0.9375 0.5625
572 2 0.8125 0.8125 0.5625
573 2 0.9375 0.8125 0.5625
574 2 0.9375 0.9375 0.5625
575 2 0.9375 0.9375 0.6875
576 2 0.9375 0.8125 0.6875
577 1 0 0 0.75
578 1 0 0.125 0.875
579 1 0.125 0 0.875
580 1 0.125 0.125 0.75
581 2 0.0625 0.0625 0.9375
582 2 0.0625 0.1875 0.9375
583 2 0.0625 0.1875 0.8125
584 2 0.0625 0.0625 0.8125
585 2 0.1875 0.0625 0.8125
586 2 0.1875 0.1875 0.8125
587 2 0.1875 0.1875 0.9375
588 2 0.1875 0.0625 0.9375
589 1 0.25 0 0.75
590 1 0.25 0.125 0.875
591 1 0.375 0 0.875
592 1 0.375 0.125 0.75
593 2 0.3125 0.0625 0.9375
594 2 0.3125 0.1875 0.9375
595 2 0.3125 0.1875 0.8125
596 2 0.3125 0.0625 0.8125
597 2 0.4375 0.0625 0.8125
598 2 0.4375 0.1875 0.8125
599 2 0.4375 0.1875 0.9375
600 2 0.4375 0.0625 0.9375
601 1 0.5 0 0.75
602 1 0.5 0.125 0.875
603 1 0.625 0 0.875
604 1 0.625 0.125 0.75
605 2 0.5625 0.0625 0.9375
606 2 0.5625 0.1875 0.9375
607 2 0.5625 0.1875 0.8125
608 2 0.5625 0.0625 0.8125
609 2 0.6875 0.0625 0.8125
610 2 0.6875 0.1875 0.8125
611 2 0.6875 0.1875 0.9375
612 2 0.6875 0.0625 0.9375
613 1 0.75 0 0.75
614 1 0.75 0.125 0.875
615 1 0.875 0 0.875
616 1 0.875 0.125 0.75
617 2 0.8125 0.0625 0.9375
618 2 0.8125 0.1875 0.9375
619 2 0.8125 0.1875 0.8125
620 2 0.8125 0.0625 0.8125
621 2 0.9375 0.0625 0.8125
622 2 0.9375 0.1875 0.8125
623 2 0.9375 0.1875 0.9375
624 2 0.9375 0.0625 0.9375
625 1 0 0.25 0.75
626 1 0 0.375 0.875
627 1 0.125 0.25 0.875
628 1 0.125 0.375 0.75
629 2 0.0625 0.3125 0.9375
630 2 0.0625 0.4375 0.9375
631 2 0.0625 0.4375 0.8125
632 2 0.0625 0.3125 0.8125
633 2 0.1875 0.3125 0.8125
634 2 0.1875 0.4375 0.8125
635 2 0.1875 0.4375 0.9375
636 2 0.1875 0.3125 0.9375
637 1 0.25 0.25 0.75
638 1 0.25 0.375 0.875
639 1 0.375 0.25 0.875
640 1 0.375 0.375 0.75
641 2 0.3125 0.3125 0.9375
642 2 0.3125 0.4375 0.9375
643 2 0.3125 0.4375 0.8125
644 2 0.3125 0.3125 0.8125
645 2 0.4375 0.3125 0.8125
646 2 0.4375 0.4375 0.8125
647 2 0.4375 0.4375 0.9375
648 2 0.4375 0.3125 0.9375
649 1 0.5 0.25 0.75
650 1 0.5 0.375 0.875
651 1 0.625 0.25 0.875
652 1 0.625 0.375 0.75
653 2 0.5625 0.3125 0.9375
654 2 0.5625 0.4375 0.9375
655 2 0.5625 0.4375 0.8125
656 2 0.5625 0.3125 0.8125
657 2 0.6875 0.3125 0.8125
658 2 0.6875 0.4375 0.8125
659 2 0.6875 0.4375 0.9375
660 2 0.6875 0.3125 0.9375
661 1 0.75 0.25 0.75
662 1 0.75 0.375 0.875
663 1 0.875 0.25 0.875
664 1 0.875 0.375 0.75
665 2 0.8125 0.3125 0.9375
666 2 0.8125 0.4375 0.9375
667 2 0.8125 0.4375 0.8125
668 2 0.8125 0.3125 0.8125
669 2 0.9375 0.3125 0.8125
670 2 0.9375 0.4375 0.8125
671 2 0.9375 0.4375 0.9375
672 2 0.9375 0.3125 0.9375
673 1 0 0.5 0.75
674 1 0 0.625 0.875
675 1 0.125 0.5 0.875
676 1 0.125 0.625 0.75
677 2 0.0625 0.5625 0.9375
678 2 0.0625 0.6875 0.9375
679 2 0.0625 0.6875 0.8125
680 2 0.0625 0.5625 0.8125
681 2 0.1875 0.5625 0.8125
682 2 0.1875 0.6875 0.8125
683 2 0.1875 0.6875 0.9375
684 2 0.1875 0.5625 0.9375
685 1 0.25 0.5 0.75
686 1 0.25 0.625 0.875
687 1 0.375 0.5 0.875
688 1 0.375 0.625 0.75
689 2 0.3125 0.5625 0.9375
690 2 0.3125 0.6875 0.9375
691 2 0.3125 0.6875 0.8125
692 2 0.3125 0.5625 0.8125
693 2 0.4375 0.5625 0.8125
694 2 0.4375 0.6875 0.8125
695 2 0.4375 0.6875 0.9375
696 2 0.4375 0.5625 0.9375
697 1 0.5 0.5 0.75
698 1 0.5 0.625 0.875
699 1 0.625 0.5 0.875
700 1 0.625 0.625 0.75
701 2 0.5625 0.5625 0.9375
702 2 0.5625 0.6875 0.9375
703 2 0.5625 0.6875 0.8125
704 2 0.5625 0.5625 0.8125
705 2 0.6875 0.5625 0.8125
706 2 0.6875 0.6875 0.8125
707 2 0.6875 0.6875 0.9375
708 2 0.6875 0.5625 0.9375
709 1 0.75 0.5 0.75
710 1 0.75 0.625 0.875
711 1 0.875 0.5 0.875
712 1 0.875 0.625 0.75
713 2 0.8125 0.5625 0.9375
714 2 0.8125 0.6875 0.9375
715 2 0.8125 0.6875 0.8125
716 2 0.8125 0.5625 0.8125
717 2 0.9375 0.5625 0.8125
718 2 0.9375 0.6875 0.8125
719 2 0.9375 0.6875 0.9375
720 2 0.9375 0.5625 0.9375
721 1 0 0.75 0.75
722 1 0 0.875 0.875
723 1 0.125 0.75 0.875
724 1 0.125 0.875 0.75
725 2 0.0625 0.8125 0.9375
726 2 0.0625 0.9375 0.9375
727 2 0.0625 0.9375 0.8125
728 2 0.0625 0.8125 0.8125
729 2 0.1875 0.8125 0.8125
730 2 0.1875 0.9375 0.8125
731 2 0.1875 0.9375 0.9375
732 2 0.1875 0.8125 0.9375
733 1 0.25 0.75 0.75
734 1 0.25 0.875 0.875
735 1 0.375 0.75 0.875
736 1 0.375 0.875 0.75
737 2 0.3125 0.8125 0.9375
738 2 0.3125 0.9375 0.9375
739 2 0.3125 0.9375 0.8125
740 2 0.3125 0.8125 0.8125
741 2 0.4375 0.8125 0.8125
742 2 0.4375 0.9375 0.8125
743 2 0.4375 0.9375 0.9375
744 2 0.4375 0.8125 0.9375
745 1 0.5 0.75 0.75
746 1 0.5 0.875 0.875
747 1 0.625 0.75 0.875
748 1 0.625 0.875 0.75
749 2 0.5625 0.8125 0.9375
750 2 0.5625 0.9375 0.9375
751 2 0.5625 0.9375 0.8125
752 2 0.5625 0.8125 0.8125
753 2 0.6875 0.8125 0.8125
754 2 0.6875 0.9375 0.8125
755 2 0.6875 0.9375 0.9375
756 2 0.6875 0.8125 0.9375
757 1 0.75 0.75 0.75
758 1 0.75 0.875 0.875
759 1 0.875 0.75 0.875
760 1 0.875 0.875 0.75
761 2 0.8125 0.8125 0.9375
762 2 0.8125 0.9375 0.9375
763 2 0.8125 0.9375 0.8125
764 2 0.8125 0.8125 0.8125
765 2 0.9375 0.8125 0.8125
766 2 0.9375 0.9375 0.8125
767 2 0.9375 0.9375 0.9375
768 2 0.9375 0.8125 0.9375
ITEM: TIMESTEP
1
ITEM: NUMBER OF ATOMS
768
ITEM: BOX BOUNDS pp pp pp
0.0000000000000000e+00 2.7337250000000008e+01
0.0000000000000000e+00 2.7337250000000008e+01
0.0000000000000000e+00 2.7337250000000008e+01
ITEM: ATOMS id type xs ys zs
1 1 5.45827e-15 5.71818e-15 5.45827e-15
2 1 1.01368e-14 0.125 0.125
3 1 0.125 9.09711e-15 0.125
4 1 0.125 0.125 9.61694e-15
5 2 0.0625 0.0625 0.1875
6 2 0.0625 0.1875 0.1875
7 2 0.0625 0.1875 0.0625
8 2 0.0625 0.0625 0.0625
9 2 0.1875 0.0625 0.0625
10 2 0.1875 0.1875 0.0625
11 2 0.1875 0.1875 0.1875
12 2 0.1875 0.0625 0.1875
13 1 0.25 7.79752e-16 4.28864e-15
14 1 0.25 0.125 0.125
15 1 0.375 5.9781e-15 0.125
16 1 0.375 0.125 7.53761e-15
17 2 0.3125 0.0625 0.1875
18 2 0.3125 0.1875 0.1875
19 2 0.3125 0.1875 0.0625
20 2 0.3125 0.0625 0.0625
21 2 0.4375 0.0625 0.0625
22 2 0.4375 0.1875 0.0625
23 2 0.4375 0.1875 0.1875
24 2 0.4375 0.0625 0.1875
25 1 0.5 2.07934e-15 3.37893e-15
26 1 0.5 0.125 0.125
27 1 0.625 5.9781e-15 0.125
28 1 0.625 0.125 5.71818e-15
29 2 0.5625 0.0625 0.1875
30 2 0.5625 0.1875 0.1875
31 2 0.5625 0.1875 0.0625
32 2 0.5625 0.0625 0.0625
33 2 0.6875 0.0625 0.0625
34 2 0.6875 0.1875 0.0625
35 2 0.6875 0.1875 0.1875
36 2 0.6875 0.0625 0.1875
37 1 0.75 6.65429e-15 6.39437e-15
38 1 0.75 0.125 0.125
39 1 0.875 9.51948e-15 0.125
40 1 0.875 0.125 7.83001e-15
41 2 0.8125 0.0625 0.1875
42 2 0.8125 0.1875 0.1875
43 2 0.8125 0.1875 0.0625
44 2 0.8125 0.0625 0.0625
45 2 0.9375 0.0625 0.0625
46 2 0.9375 0.1875 0.0625
47 2 0.9375 0.1875 0.1875
48 2 0.9375 0.0625 0.1875
49 1 1.29959e-16 0.25 4.15868e-15
50 1 5.19835e-15 0.375 0.125
51 1 0.125 0.25 0.125
52 1 0.125 0.375 5.82377e-15
53 2 0.0625 0.3125 0.1875
54 2 0.0625 0.4375 0.1875
55 2 0.0625 0.4375 0.0625
56 2 0.0625 0.3125 0.0625
57 2 0.1875 0.3125 0.0625
58 2 0.1875 0.4375 0.0625
59 2 0.1875 0.4375 0.1875
60 2 0.1875 0.3125 0.1875
61 1 0.25 0.25 1.21456e-15
62 1 0.25 0.375 0.125
63 1 0.375 0.25 0.125
64 1 0.375 0.375 4.15868e-15
65 2 0.3125 0.3125 0.1875
66 2 0.3125 0.4375 0.1875
67 2 0.3125 0.4375 0.0625
68 2 0.3125 0.3125 0.0625
69 2 0.4375 0.3125 0.0625
70 2 0.4375 0.4375 0.0625
71 2 0.4375 0.4375 0.1875
72 2 0.4375 0.3125 0.1875
73 1 0.5 0.25 5.19835e-15
74 1 0.5 0.375 0.125
75 1 0.625 0.25 0.125
76 1 0.625 0.375 3.63884e-15
77 2 0.5625 0.3125 0.1875
78 2 0.5625 0.4375 0.1875
79 2 0.5625 0.4375 0.0625
80 2 0.5625 0.3125 0.0625
81 2 0.6875 0.3125 0.0625
82 2 0.6875 0.4375 0.0625
83 2 0.6875 0.4375 0.1875
84 2 0.6875 0.3125 0.1875
85 1 0.75 0.25 7.07463e-15
86 1 0.75 0.375 0.125
87 1 0.875 0.25 0.125
88 1 0.875 0.375 7.99246e-15
89 2 0.8125 0.3125 0.1875
90 2 0.8125 0.4375 0.1875
91 2 0.8125 0.4375 0.0625
92 2 0.8125 0.3125 0.0625
93 2 0.9375 0.3125 0.0625
94 2 0.9375 0.4375 0.0625
95 2 0.9375 0.4375 0.1875
96 2 0.9375 0.3125 0.1875
97 1 1.29959e-15 0.5 3.89876e-15
98 1 6.23802e-15 0.625 0.125
99 1 0.125 0.5 0.125
100 1 0.125 0.625 5.13743e-15
101 2 0.0625 0.5625 0.1875
102 2 0.0625 0.6875 0.1875
103 2 0.0625 0.6875 0.0625
104 2 0.0625 0.5625 0.0625
105 2 0.1875 0.5625 0.0625
106 2 0.1875 0.6875 0.0625
107 2 0.1875 0.6875 0.1875
108 2 0.1875 0.5625 0.1875
109 1 0.25 0.5 4.07441e-15
110 1 0.25 0.625 0.125
111 1 0.375 0.5 0.125
112 1 0.375 0.625 1.5595e-15
113 2 0.3125 0.5625 0.1875
114 2 0.3125 0.6875 0.1875
115 2 0.3125 0.6875 0.0625
116 2 0.3125 0.5625 0.0625
117 2 0.4375 0.5625 0.0625
118 2 0.4375 0.6875 0.0625
119 2 0.4375 0.6875 0.1875
120 2 0.4375 0.5625 0.1875
121 1 0.5 0.5 2.33926e-15
122 1 0.5 0.625 0.125
123 1 0.625 0.5 0.125
124 1 0.625 0.625 2.07934e-15
125 2 0.5625 0.5625 0.1875
126 2 0.5625 0.6875 0.1875
127 2 0.5625 0.6875 0.0625
128 2 0.5625 0.5625 0.0625
129 2 0.6875 0.5625 0.0625
130 2 0.6875 0.6875 0.0625
131 2 0.6875 0.6875 0.1875
132 2 0.6875 0.5625 0.1875
133 1 0.75 0.5 2.8997e-15
134 1 0.75 0.625 0.125
135 1 0.875 0.5 0.125
136 1 0.875 0.625 2.14432e-15
137 2 0.8125 0.5625 0.1875
138 2 0.8125 0.6875 0.1875
139 2 0.8125 0.6875 0.0625
140 2 0.8125 0.5625 0.0625
141 2 0.9375 0.5625 0.0625
142 2 0.9375 0.6875 0.0625
143 2 0.9375 0.6875 0.1875
144 2 0.9375 0.5625 0.1875
145 1 6.20553e-15 0.75 7.01777e-15
146 1 8.57727e-15 0.875 0.125
147 1 0.125 0.75 0.125
148 1 0.125 0.875 6.78628e-15
149 2 0.0625 0.8125 0.1875
150 2 0.0625 0.9375 0.1875
151 2 0.0625 0.9375 0.0625
152 2 0.0625 0.8125 0.0625
153 2 0.1875 0.8125 0.0625
154 2 0.1875 0.9375 0.0625
155 2 0.1875 0.9375 0.1875
156 2 0.1875 0.8125 0.1875
157 1 0.25 0.75 6.2101e-15
158 1 0.25 0.875 0.125
159 1 0.375 0.75 0.125
160 1 0.375 0.875 8.93466e-15
161 2 0.3125 0.8125 0.1875
162 2 0.3125 0.9375 0.1875
163 2 0.3125 0.9375 0.0625
164 2 0.3125 0.8125 0.0625
165 2 0.4375 0.8125 0.0625
166 2 0.4375 0.9375 0.0625
167 2 0.4375 0.9375 0.1875
168 2 0.4375 0.8125 0.1875
169 1 0.5 0.75 2.63979e-15
170 1 0.5 0.875 0.125
171 1 0.625 0.75 0.125
172 1 0.625 0.875 2.59917e-15
173 2 0.5625 0.8125 0.1875
174 2 0.5625 0.9375 0.1875
175 2 0.5625 0.9375 0.0625
176 2 0.5625 0.8125 0.0625
177 2 0.6875 0.8125 0.0625
178 2 0.6875 0.9375 0.0625
179 2 0.6875 0.9375 0.1875
180 2 0.6875 0.8125 0.1875
181 1 0.75 0.75 7.87875e-15
182 1 0.75 0.875 0.125
183 1 0.875 0.75 0.125
184 1 0.875 0.875 5.19835e-15
185 2 0.8125 0.8125 0.1875
186 2 0.8125 0.9375 0.1875
187 2 0.8125 0.9375 0.0625
188 2 0.8125 0.8125 0.0625
189 2 0.9375 0.8125 0.0625
190 2 0.9375 0.9375 0.0625
191 2 0.9375 0.9375 0.1875
192 2 0.9375 0.8125 0.1875
193 1 4.93843e-15 5.9781e-15 0.25
194 1 8.31736e-15 0.125 0.375
195 1 0.125 7.76909e-15 0.375
196 1 0.125 0.125 0.25
197 2 0.0625 0.0625 0.4375
198 2 0.0625 0.1875 0.4375
199 2 0.0625 0.1875 0.3125
200 2 0.0625 0.0625 0.3125
201 2 0.1875 0.0625 0.3125
202 2 0.1875 0.1875 0.3125
203 2 0.1875 0.1875 0.4375
204 2 0.1875 0.0625 0.4375
205 1 0.25 1.55722e-15 0.25
206 1 0.25 0.125 0.375
207 1 0.375 4.67851e-15 0.375
208 1 0.375 0.125 0.25
209 2 0.3125 0.0625 0.4375
210 2 0.3125 0.1875 0.4375
211 2 0.3125 0.1875 0.3125
212 2 0.3125 0.0625 0.3125
213 2 0.4375 0.0625 0.3125
214 2 0.4375 0.1875 0.3125
215 2 0.4375 0.1875 0.4375
216 2 0.4375 0.0625 0.4375
217 1 0.5 1.03967e-15 0.25
218 1 0.5 0.125 0.375
219 1 0.625 3.37893e-15 0.375
220 1 0.625 0.125 0.25
221 2 0.5625 0.0625 0.4375
222 2 0.5625 0.1875 0.4375
223 2 0.5625 0.1875 0.3125
224 2 0.5625 0.0625 0.3125
225 2 0.6875 0.0625 0.3125
226 2 0.6875 0.1875 0.3125
227 2 0.6875 0.1875 0.4375
228 2 0.6875 0.0625 0.4375
229 1 0.75 5.35674e-15 0.25
230 1 0.75 0.125 0.375
231 1 0.875 8.90217e-15 0.375
232 1 0.875 0.125 0.25
233 2 0.8125 0.0625 0.4375
234 2 0.8125 0.1875 0.4375
235 2 0.8125 0.1875 0.3125
236 2 0.8125 0.0625 0.3125
237 2 0.9375 0.0625 0.3125
238 2 0.9375 0.1875 0.3125
239 2 0.9375 0.1875 0.4375
240 2 0.9375 0.0625 0.4375
241 1 -1.03967e-15 0.25 0.25
242 1 4.15868e-15 0.375 0.375
243 1 0.125 0.25 0.375
244 1 0.125 0.375 0.25
245 2 0.0625 0.3125 0.4375
246 2 0.0625 0.4375 0.4375
247 2 0.0625 0.4375 0.3125
248 2 0.0625 0.3125 0.3125
249 2 0.1875 0.3125 0.3125
250 2 0.1875 0.4375 0.3125
251 2 0.1875 0.4375 0.4375
252 2 0.1875 0.3125 0.4375
253 1 0.25 0.25 0.25
254 1 0.25 0.375 0.375
255 1 0.375 0.25 0.375
256 1 0.375 0.375 0.25
257 2 0.3125 0.3125 0.4375
258 2 0.3125 0.4375 0.4375
259 2 0.3125 0.4375 0.3125
260 2 0.3125 0.3125 0.3125
261 2 0.4375 0.3125 0.3125
262 2 0.4375 0.4375 0.3125
263 2 0.4375 0.4375 0.4375
264 2 0.4375 0.3125 0.4375
265 1 0.5 0.25 0.25
266 1 0.5 0.375 0.375
267 1 0.625 0.25 0.375
268 1 0.625 0.375 0.25
269 2 0.5625 0.3125 0.4375
270 2 0.5625 0.4375 0.4375
271 2 0.5625 0.4375 0.3125
272 2 0.5625 0.3125 0.3125
273 2 0.6875 0.3125 0.3125
274 2 0.6875 0.4375 0.3125
275 2 0.6875 0.4375 0.4375
276 2 0.6875 0.3125 0.4375
277 1 0.75 0.25 0.25
278 1 0.75 0.375 0.375
279 1 0.875 0.25 0.375
280 1 0.875 0.375 0.25
281 2 0.8125 0.3125 0.4375
282 2 0.8125 0.4375 0.4375
283 2 0.8125 0.4375 0.3125
284 2 0.8125 0.3125 0.3125
285 2 0.9375 0.3125 0.3125
286 2 0.9375 0.4375 0.3125
287 2 0.9375 0.4375 0.4375
288 2 0.9375 0.3125 0.4375
289 1 2.59917e-15 0.5 0.25
290 1 2.85909e-15 0.625 0.375
291 1 0.125 0.5 0.375
292 1 0.125 0.625 0.25
293 2 0.0625 0.5625 0.4375
294 2 0.0625 0.6875 0.4375
295 2 0.0625 0.6875 0.3125
296 2 0.0625 0.5625 0.3125
297 2 0.1875 0.5625 0.3125
298 2 0.1875 0.6875 0.3125
299 2 0.1875 0.6875 0.4375
300 2 0.1875 0.5625 0.4375
301 1 0.25 0.5 0.25
302 1 0.25 0.625 0.375
303 1 0.375 0.5 0.375
304 1 0.375 0.625 0.25
305 2 0.3125 0.5625 0.4375
306 2 0.3125 0.6875 0.4375
307 2 0.3125 0.6875 0.3125
308 2 0.3125 0.5625 0.3125
309 2 0.4375 0.5625 0.3125
310 2 0.4375 0.6875 0.3125
311 2 0.4375 0.6875 0.4375
312 2 0.4375 0.5625 0.4375
313 1 0.5 0.5 0.25
314 1 0.5 0.625 0.375
315 1 0.625 0.5 0.375
316 1 0.625 0.625 0.25
317 2 0.5625 0.5625 0.4375
318 2 0.5625 0.6875 0.4375
319 2 0.5625 0.6875 0.3125
320 2 0.5625 0.5625 0.3125
321 2 0.6875 0.5625 0.3125
322 2 0.6875 0.6875 0.3125
323 2 0.6875 0.6875 0.4375
324 2 0.6875 0.5625 0.4375
325 1 0.75 0.5 0.25
326 1 0.75 0.625 0.375
327 1 0.875 0.5 0.375
328 1 0.875 0.625 0.25
329 2 0.8125 0.5625 0.4375
330 2 0.8125 0.6875 0.4375
331 2 0.8125 0.6875 0.3125
332 2 0.8125 0.5625 0.3125
333 2 0.9375 0.5625 0.3125
334 2 0.9375 0.6875 0.3125
335 2 0.9375 0.6875 0.4375
336 2 0.9375 0.5625 0.4375
337 1 3.63884e-15 0.75 0.25
338 1 8.57727e-15 0.875 0.375
339 1 0.125 0.75 0.375
340 1 0.125 0.875 0.25
341 2 0.0625 0.8125 0.4375
342 2 0.0625 0.9375 0.4375
343 2 0.0625 0.9375 0.3125
344 2 0.0625 0.8125 0.3125
345 2 0.1875 0.8125 0.3125
346 2 0.1875 0.9375 0.3125
347 2 0.1875 0.9375 0.4375
348 2 0.1875 0.8125 0.4375
349 1 0.25 0.75 0.25
350 1 0.25 0.875 0.375
351 1 0.375 0.75 0.375
352 1 0.375 0.875 0.25
353 2 0.3125 0.8125 0.4375
354 2 0.3125 0.9375 0.4375
355 2 0.3125 0.9375 0.3125
356 2 0.3125 0.8125 0.3125
357 2 0.4375 0.8125 0.3125
358 2 0.4375 0.9375 0.3125
359 2 0.4375 0.9375 0.4375
360 2 0.4375 0.8125 0.4375
361 1 0.5 0.75 0.25
362 1 0.5 0.875 0.375
363 1 0.625 0.75 0.375
364 1 0.625 0.875 0.25
365 2 0.5625 0.8125 0.4375
366 2 0.5625 0.9375 0.4375
367 2 0.5625 0.9375 0.3125
368 2 0.5625 0.8125 0.3125
369 2 0.6875 0.8125 0.3125
370 2 0.6875 0.9375 0.3125
371 2 0.6875 0.9375 0.4375
372 2 0.6875 0.8125 0.4375
373 1 0.75 0.75 0.25
374 1 0.75 0.875 0.375
375 1 0.875 0.75 0.375
376 1 0.875 0.875 0.25
377 2 0.8125 0.8125 0.4375
378 2 0.8125 0.9375 0.4375
379 2 0.8125 0.9375 0.3125
380 2 0.8125 0.8125 0.3125
381 2 0.9375 0.8125 0.3125
382 2 0.9375 0.9375 0.3125
383 2 0.9375 0.9375 0.4375
384 2 0.9375 0.8125 0.4375
385 1 1.03967e-15 2.2093e-15 0.5
386 1 5.71818e-15 0.125 0.625
387 1 0.125 6.48169e-15 0.625
388 1 0.125 0.125 0.5
389 2 0.0625 0.0625 0.6875
390 2 0.0625 0.1875 0.6875
391 2 0.0625 0.1875 0.5625
392 2 0.0625 0.0625 0.5625
393 2 0.1875 0.0625 0.5625
394 2 0.1875 0.1875 0.5625
395 2 0.1875 0.1875 0.6875
396 2 0.1875 0.0625 0.6875