LAMMPS (2 Aug 2023 - Update 3)
#ReaxFF for CeO2

#Real units, see LAMMPS documentation
units real

#Periodic boundary
boundary p p p

#Specifies that atoms will have a charge
atom_style charge

#Reads data from file. Formatting of file alligns with examples from LAMMPS github repository
read_data data.CeO2
Reading data file ...
  orthogonal box = (0 0 0) to (5.46745 5.46745 5.46745)
  1 by 1 by 1 MPI processor grid
  reading atoms ...
  12 atoms
  read_data CPU = 0.001 seconds

# Access and print the value of xhi
variable xhi equal "xhi"
#print "xhi = ${xhi}"

# Calculate n*xhi where n is the number of unit cells per side of the supercell
variable n_times_xhi equal 4*${xhi}
variable n_times_xhi equal 4*5.46745
#print "4 * xhi = ${n_times_xhi}"

# Define dimensions of the supercell using 2*xhi
region supercell block 0.0 ${n_times_xhi} 0.0 ${n_times_xhi} 0.0 ${n_times_xhi} units box
region supercell block 0.0 21.8698 0.0 ${n_times_xhi} 0.0 ${n_times_xhi} units box
region supercell block 0.0 21.8698 0.0 21.8698 0.0 ${n_times_xhi} units box
region supercell block 0.0 21.8698 0.0 21.8698 0.0 21.8698 units box

# Define dimensions of the supercell
#region supercell block 0.0 10.9349 0.0 10.9349 0.0 10.9349 units box

# Create the supercell
replicate 4 4 4
Replication is creating a 4x4x4 = 64 times larger system...
  orthogonal box = (0 0 0) to (21.8698 21.8698 21.8698)
  1 by 1 by 1 MPI processor grid
  768 atoms
  replicate CPU = 0.000 seconds

#Null indicates that the default ReaxFF parameters will be used. checkqeq yes allows charge equilibration method to be used.
#Relevant default parameter: Cutoff distance is found in field.reax: !Upper Taper-radius
pair_style reaxff NULL checkqeq yes

pair_coeff * * field.reax O Ce

neighbor        2.0 bin
neigh_modify every 10 delay 0 check yes

#Only relevant for MD, not minimization
#fix             1 all nve

#Allows for charge equilibration
fix qeq all qeq/reaxff 1 0.0 10.0 1.0e-6 reaxff

dump mydmp all atom 1 dump.lammpstrj

# Perform minimization
min_style       cg
minimize        1.0e-4 1.0e-6 100 1000

CITE-CITE-CITE-CITE-CITE-CITE-CITE-CITE-CITE-CITE-CITE-CITE-CITE

Your simulation uses code contributions which should be cited:

- pair reaxff command: doi:10.1016/j.parco.2011.08.005

@Article{Aktulga12,
 author = {H. M. Aktulga and J. C. Fogarty and S. A. Pandit and A. Y. Grama},
 title = {Parallel Reactive Molecular Dynamics: {N}umerical Methods and Algorithmic Techniques},
 journal = {Parallel Computing},
 year =    2012,
 volume =  38,
 number =  {4--5},
 pages =   {245--259}
}

- fix qeq/reaxff command: doi:10.1016/j.parco.2011.08.005

@Article{Aktulga12,
 author = {H. M. Aktulga and J. C. Fogarty and S. A. Pandit and A. Y. Grama},
 title = {Parallel Reactive Molecular Dynamics: {N}umerical Methods and Algorithmic Techniques},
 journal = {Parallel Computing},
 year =    2012,
 volume =  38,
 pages =   {245--259}
}

CITE-CITE-CITE-CITE-CITE-CITE-CITE-CITE-CITE-CITE-CITE-CITE-CITE

Switching to 'neigh_modify every 1 delay 0 check yes' setting during minimization
Neighbor list info ...
  update: every = 1 steps, delay = 0 steps, check = yes
  max neighbors/atom: 2000, page size: 100000
  master list distance cutoff = 12
  ghost atom cutoff = 12
  binsize = 6, bins = 4 4 4
  2 neighbor lists, perpetual/occasional/extra = 2 0 0
  (1) pair reaxff, perpetual
      attributes: half, newton off, ghost
      pair build: half/bin/newtoff/ghost
      stencil: full/ghost/bin/3d
      bin: standard
  (2) fix qeq/reaxff, perpetual, copy from (1)
      attributes: half, newton off
      pair build: copy
      stencil: none
      bin: none
Per MPI rank memory allocation (min/avg/max) = 173 | 173 | 173 Mbytes
   Step          Temp          E_pair         E_mol          TotEng         Press     
         0   0             -57815.101      0             -57815.101      1626827.5    
         1   0             -57815.101      0             -57815.101      1626827.5    
Loop time of 0.567546 on 1 procs for 1 steps with 768 atoms

88.4% CPU use with 1 MPI tasks x no OpenMP threads

Minimization stats:
  Stopping criterion = linesearch alpha is zero
  Energy initial, next-to-last, final = 
     -57815.1005337374  -57815.1005337374  -57815.1005337361
  Force two-norm initial, final = 4.0596296e-11 0.00020249701
  Force max component initial, final = 2.7835512e-12 2.3010619e-05
  Final line search alpha, max atom move = 0.5 1.150531e-05
  Iterations, force evaluations = 1 3

MPI task timing breakdown:
Section |  min time  |  avg time  |  max time  |%varavg| %total
---------------------------------------------------------------
Pair    | 0.53108    | 0.53108    | 0.53108    |   0.0 | 93.58
Neigh   | 0          | 0          | 0          |   0.0 |  0.00
Comm    | 0.00010238 | 0.00010238 | 0.00010238 |   0.0 |  0.02
Output  | 0          | 0          | 0          |   0.0 |  0.00
Modify  | 0.035766   | 0.035766   | 0.035766   |   0.0 |  6.30
Other   |            | 0.0005944  |            |       |  0.10

Nlocal:            768 ave         768 max         768 min
Histogram: 1 0 0 0 0 0 0 0 0 0
Nghost:           5785 ave        5785 max        5785 min
Histogram: 1 0 0 0 0 0 0 0 0 0
Neighs:         314027 ave      314027 max      314027 min
Histogram: 1 0 0 0 0 0 0 0 0 0

Total # of neighbors = 314027
Ave neighs/atom = 408.88932
Neighbor list builds = 0
Dangerous builds = 0

thermo          100
clear
#ReaxFF for CeO2

#Real units, see LAMMPS documentation
units real

#Periodic boundary
boundary p p p

#Specifies that atoms will have a charge
atom_style charge

#Reads data from file. Formatting of file alligns with examples from LAMMPS github repository
read_data data_0.95.CeO2
Reading data file ...
  orthogonal box = (0 0 0) to (5.1940775 5.1940775 5.1940775)
  1 by 1 by 1 MPI processor grid
  reading atoms ...
  12 atoms
  read_data CPU = 0.000 seconds

# Access and print the value of xhi
variable xhi equal "xhi"
#print "xhi = ${xhi}"

# Calculate n*xhi where n is the number of unit cells per side of the supercell
variable n_times_xhi equal 4*${xhi}
variable n_times_xhi equal 4*5.1940775
#print "4 * xhi = ${n_times_xhi}"

# Define dimensions of the supercell using 2*xhi
region supercell block 0.0 ${n_times_xhi} 0.0 ${n_times_xhi} 0.0 ${n_times_xhi} units box
region supercell block 0.0 20.77631 0.0 ${n_times_xhi} 0.0 ${n_times_xhi} units box
region supercell block 0.0 20.77631 0.0 20.77631 0.0 ${n_times_xhi} units box
region supercell block 0.0 20.77631 0.0 20.77631 0.0 20.77631 units box

# Define dimensions of the supercell
#region supercell block 0.0 10.9349 0.0 10.9349 0.0 10.9349 units box

# Create the supercell
replicate 4 4 4
Replication is creating a 4x4x4 = 64 times larger system...
  orthogonal box = (0 0 0) to (20.77631 20.77631 20.77631)
  1 by 1 by 1 MPI processor grid
  768 atoms
  replicate CPU = 0.000 seconds

#Null indicates that the default ReaxFF parameters will be used. checkqeq yes allows charge equilibration method to be used.
#Relevant default parameter: Cutoff distance is found in field.reax: !Upper Taper-radius
pair_style reaxff NULL checkqeq yes

pair_coeff * * field.reax O Ce

neighbor        2.0 bin
neigh_modify every 10 delay 0 check yes

#Only relevant for MD, not minimization
#fix             1 all nve

#Allows for charge equilibration
fix qeq all qeq/reaxff 1 0.0 10.0 1.0e-6 reaxff

dump mydmp all atom 1 dump.lammpstrj

# Perform minimization
min_style       cg
minimize        1.0e-4 1.0e-6 100 1000
Switching to 'neigh_modify every 1 delay 0 check yes' setting during minimization
Neighbor list info ...
  update: every = 1 steps, delay = 0 steps, check = yes
  max neighbors/atom: 2000, page size: 100000
  master list distance cutoff = 12
  ghost atom cutoff = 12
  binsize = 6, bins = 4 4 4
  2 neighbor lists, perpetual/occasional/extra = 2 0 0
  (1) pair reaxff, perpetual
      attributes: half, newton off, ghost
      pair build: half/bin/newtoff/ghost
      stencil: full/ghost/bin/3d
      bin: standard
  (2) fix qeq/reaxff, perpetual, copy from (1)
      attributes: half, newton off
      pair build: copy
      stencil: none
      bin: none
Per MPI rank memory allocation (min/avg/max) = 226.9 | 226.9 | 226.9 Mbytes
   Step          Temp          E_pair         E_mol          TotEng         Press     
         0   0             -6206.5381      0             -6206.5381      3394763.3    
         1   0             -6206.5381      0             -6206.5381      3394763.3    
Loop time of 0.6287 on 1 procs for 1 steps with 768 atoms

92.1% CPU use with 1 MPI tasks x no OpenMP threads

Minimization stats:
  Stopping criterion = linesearch alpha is zero
  Energy initial, next-to-last, final = 
     -6206.53812799259  -6206.53812799259  -6206.53812797829
  Force two-norm initial, final = 2.2158145e-10 0.0028607418
  Force max component initial, final = 1.9340873e-11 0.00020546647
  Final line search alpha, max atom move = 0.5 0.00010273324
  Iterations, force evaluations = 1 3

MPI task timing breakdown:
Section |  min time  |  avg time  |  max time  |%varavg| %total
---------------------------------------------------------------
Pair    | 0.58371    | 0.58371    | 0.58371    |   0.0 | 92.84
Neigh   | 0          | 0          | 0          |   0.0 |  0.00
Comm    | 0.00015546 | 0.00015546 | 0.00015546 |   0.0 |  0.02
Output  | 0          | 0          | 0          |   0.0 |  0.00
Modify  | 0.044258   | 0.044258   | 0.044258   |   0.0 |  7.04
Other   |            | 0.0005751  |            |       |  0.09

Nlocal:            768 ave         768 max         768 min
Histogram: 1 0 0 0 0 0 0 0 0 0
Nghost:           7521 ave        7521 max        7521 min
Histogram: 1 0 0 0 0 0 0 0 0 0
Neighs:         380192 ave      380192 max      380192 min
Histogram: 1 0 0 0 0 0 0 0 0 0

Total # of neighbors = 380192
Ave neighs/atom = 495.04167
Neighbor list builds = 0
Dangerous builds = 0

thermo          100
clear
#ReaxFF for CeO2

#Real units, see LAMMPS documentation
units real

#Periodic boundary
boundary p p p

#Specifies that atoms will have a charge
atom_style charge

#Reads data from file. Formatting of file alligns with examples from LAMMPS github repository
read_data data_0.96.CeO2
Reading data file ...
  orthogonal box = (0 0 0) to (5.248752 5.248752 5.248752)
  1 by 1 by 1 MPI processor grid
  reading atoms ...
  12 atoms
  read_data CPU = 0.000 seconds

# Access and print the value of xhi
variable xhi equal "xhi"
#print "xhi = ${xhi}"

# Calculate n*xhi where n is the number of unit cells per side of the supercell
variable n_times_xhi equal 4*${xhi}
variable n_times_xhi equal 4*5.248752
#print "4 * xhi = ${n_times_xhi}"

# Define dimensions of the supercell using 2*xhi
region supercell block 0.0 ${n_times_xhi} 0.0 ${n_times_xhi} 0.0 ${n_times_xhi} units box
region supercell block 0.0 20.995008 0.0 ${n_times_xhi} 0.0 ${n_times_xhi} units box
region supercell block 0.0 20.995008 0.0 20.995008 0.0 ${n_times_xhi} units box
region supercell block 0.0 20.995008 0.0 20.995008 0.0 20.995008 units box

# Define dimensions of the supercell
#region supercell block 0.0 10.9349 0.0 10.9349 0.0 10.9349 units box

# Create the supercell
replicate 4 4 4
Replication is creating a 4x4x4 = 64 times larger system...
  orthogonal box = (0 0 0) to (20.995008 20.995008 20.995008)
  1 by 1 by 1 MPI processor grid
  768 atoms
  replicate CPU = 0.000 seconds

#Null indicates that the default ReaxFF parameters will be used. checkqeq yes allows charge equilibration method to be used.
#Relevant default parameter: Cutoff distance is found in field.reax: !Upper Taper-radius
pair_style reaxff NULL checkqeq yes

pair_coeff * * field.reax O Ce

neighbor        2.0 bin
neigh_modify every 10 delay 0 check yes

#Only relevant for MD, not minimization
#fix             1 all nve

#Allows for charge equilibration
fix qeq all qeq/reaxff 1 0.0 10.0 1.0e-6 reaxff

dump mydmp all atom 1 dump.lammpstrj

# Perform minimization
min_style       cg
minimize        1.0e-4 1.0e-6 100 1000
Switching to 'neigh_modify every 1 delay 0 check yes' setting during minimization
Neighbor list info ...
  update: every = 1 steps, delay = 0 steps, check = yes
  max neighbors/atom: 2000, page size: 100000
  master list distance cutoff = 12
  ghost atom cutoff = 12
  binsize = 6, bins = 4 4 4
  2 neighbor lists, perpetual/occasional/extra = 2 0 0
  (1) pair reaxff, perpetual
      attributes: half, newton off, ghost
      pair build: half/bin/newtoff/ghost
      stencil: full/ghost/bin/3d
      bin: standard
  (2) fix qeq/reaxff, perpetual, copy from (1)
      attributes: half, newton off
      pair build: copy
      stencil: none
      bin: none
Per MPI rank memory allocation (min/avg/max) = 225.9 | 225.9 | 225.9 Mbytes
   Step          Temp          E_pair         E_mol          TotEng         Press     
         0   0             -19332.062      0             -19332.062      2912060.1    
         1   0             -19332.062      0             -19332.062      2912060.1    
Loop time of 0.460355 on 1 procs for 1 steps with 768 atoms

91.3% CPU use with 1 MPI tasks x no OpenMP threads

Minimization stats:
  Stopping criterion = energy tolerance
  Energy initial, next-to-last, final = 
     -19332.0622737793  -19332.0622737793   -19332.062273789
  Force two-norm initial, final = 1.5491553e-10 0.00037706298
  Force max component initial, final = 1.0885515e-11 3.071265e-05
  Final line search alpha, max atom move = 1 3.071265e-05
  Iterations, force evaluations = 1 2

MPI task timing breakdown:
Section |  min time  |  avg time  |  max time  |%varavg| %total
---------------------------------------------------------------
Pair    | 0.42816    | 0.42816    | 0.42816    |   0.0 | 93.01
Neigh   | 0          | 0          | 0          |   0.0 |  0.00
Comm    | 9.9668e-05 | 9.9668e-05 | 9.9668e-05 |   0.0 |  0.02
Output  | 0          | 0          | 0          |   0.0 |  0.00
Modify  | 0.031262   | 0.031262   | 0.031262   |   0.0 |  6.79
Other   |            | 0.0008365  |            |       |  0.18

Nlocal:            768 ave         768 max         768 min
Histogram: 1 0 0 0 0 0 0 0 0 0
Nghost:           7521 ave        7521 max        7521 min
Histogram: 1 0 0 0 0 0 0 0 0 0
Neighs:         359648 ave      359648 max      359648 min
Histogram: 1 0 0 0 0 0 0 0 0 0

Total # of neighbors = 359648
Ave neighs/atom = 468.29167
Neighbor list builds = 0
Dangerous builds = 0

thermo          100
clear
#ReaxFF for CeO2

#Real units, see LAMMPS documentation
units real

#Periodic boundary
boundary p p p

#Specifies that atoms will have a charge
atom_style charge

#Reads data from file. Formatting of file alligns with examples from LAMMPS github repository
read_data data_0.97.CeO2
Reading data file ...
  orthogonal box = (0 0 0) to (5.3034265 5.3034265 5.3034265)
  1 by 1 by 1 MPI processor grid
  reading atoms ...
  12 atoms
  read_data CPU = 0.000 seconds

# Access and print the value of xhi
variable xhi equal "xhi"
#print "xhi = ${xhi}"

# Calculate n*xhi where n is the number of unit cells per side of the supercell
variable n_times_xhi equal 4*${xhi}
variable n_times_xhi equal 4*5.3034265
#print "4 * xhi = ${n_times_xhi}"

# Define dimensions of the supercell using 2*xhi
region supercell block 0.0 ${n_times_xhi} 0.0 ${n_times_xhi} 0.0 ${n_times_xhi} units box
region supercell block 0.0 21.213706 0.0 ${n_times_xhi} 0.0 ${n_times_xhi} units box
region supercell block 0.0 21.213706 0.0 21.213706 0.0 ${n_times_xhi} units box
region supercell block 0.0 21.213706 0.0 21.213706 0.0 21.213706 units box

# Define dimensions of the supercell
#region supercell block 0.0 10.9349 0.0 10.9349 0.0 10.9349 units box

# Create the supercell
replicate 4 4 4
Replication is creating a 4x4x4 = 64 times larger system...
  orthogonal box = (0 0 0) to (21.213706 21.213706 21.213706)
  1 by 1 by 1 MPI processor grid
  768 atoms
  replicate CPU = 0.000 seconds

#Null indicates that the default ReaxFF parameters will be used. checkqeq yes allows charge equilibration method to be used.
#Relevant default parameter: Cutoff distance is found in field.reax: !Upper Taper-radius
pair_style reaxff NULL checkqeq yes

pair_coeff * * field.reax O Ce

neighbor        2.0 bin
neigh_modify every 10 delay 0 check yes

#Only relevant for MD, not minimization
#fix             1 all nve

#Allows for charge equilibration
fix qeq all qeq/reaxff 1 0.0 10.0 1.0e-6 reaxff

dump mydmp all atom 1 dump.lammpstrj

# Perform minimization
min_style       cg
minimize        1.0e-4 1.0e-6 100 1000
Switching to 'neigh_modify every 1 delay 0 check yes' setting during minimization
Neighbor list info ...
  update: every = 1 steps, delay = 0 steps, check = yes
  max neighbors/atom: 2000, page size: 100000
  master list distance cutoff = 12
  ghost atom cutoff = 12
  binsize = 6, bins = 4 4 4
  2 neighbor lists, perpetual/occasional/extra = 2 0 0
  (1) pair reaxff, perpetual
      attributes: half, newton off, ghost
      pair build: half/bin/newtoff/ghost
      stencil: full/ghost/bin/3d
      bin: standard
  (2) fix qeq/reaxff, perpetual, copy from (1)
      attributes: half, newton off
      pair build: copy
      stencil: none
      bin: none
Per MPI rank memory allocation (min/avg/max) = 224.7 | 224.7 | 224.7 Mbytes
   Step          Temp          E_pair         E_mol          TotEng         Press     
         0   0             -30843.457      0             -30843.457      2505231.1    
         1   0             -30843.457      0             -30843.457      2505231.1    
Loop time of 0.57146 on 1 procs for 1 steps with 768 atoms

96.0% CPU use with 1 MPI tasks x no OpenMP threads

Minimization stats:
  Stopping criterion = linesearch alpha is zero
  Energy initial, next-to-last, final = 
     -30843.4573855769  -30843.4573855769  -30843.4573855405
  Force two-norm initial, final = 3.3511256e-11 0.00046832663
  Force max component initial, final = 2.9945291e-12 4.9931586e-05
  Final line search alpha, max atom move = 0.5 2.4965793e-05
  Iterations, force evaluations = 1 3

MPI task timing breakdown:
Section |  min time  |  avg time  |  max time  |%varavg| %total
---------------------------------------------------------------
Pair    | 0.5328     | 0.5328     | 0.5328     |   0.0 | 93.23
Neigh   | 0          | 0          | 0          |   0.0 |  0.00
Comm    | 0.00013271 | 0.00013271 | 0.00013271 |   0.0 |  0.02
Output  | 0          | 0          | 0          |   0.0 |  0.00
Modify  | 0.038016   | 0.038016   | 0.038016   |   0.0 |  6.65
Other   |            | 0.0005141  |            |       |  0.09

Nlocal:            768 ave         768 max         768 min
Histogram: 1 0 0 0 0 0 0 0 0 0
Nghost:           7521 ave        7521 max        7521 min
Histogram: 1 0 0 0 0 0 0 0 0 0
Neighs:         329003 ave      329003 max      329003 min
Histogram: 1 0 0 0 0 0 0 0 0 0

Total # of neighbors = 329003
Ave neighs/atom = 428.38932
Neighbor list builds = 0
Dangerous builds = 0

thermo          100
clear
#ReaxFF for CeO2

#Real units, see LAMMPS documentation
units real

#Periodic boundary
boundary p p p

#Specifies that atoms will have a charge
atom_style charge

#Reads data from file. Formatting of file alligns with examples from LAMMPS github repository
read_data data_0.98.CeO2
Reading data file ...
  orthogonal box = (0 0 0) to (5.358101 5.358101 5.358101)
  1 by 1 by 1 MPI processor grid
  reading atoms ...
  12 atoms
  read_data CPU = 0.000 seconds

# Access and print the value of xhi
variable xhi equal "xhi"
#print "xhi = ${xhi}"

# Calculate n*xhi where n is the number of unit cells per side of the supercell
variable n_times_xhi equal 4*${xhi}
variable n_times_xhi equal 4*5.358101
#print "4 * xhi = ${n_times_xhi}"

# Define dimensions of the supercell using 2*xhi
region supercell block 0.0 ${n_times_xhi} 0.0 ${n_times_xhi} 0.0 ${n_times_xhi} units box
region supercell block 0.0 21.432404 0.0 ${n_times_xhi} 0.0 ${n_times_xhi} units box
region supercell block 0.0 21.432404 0.0 21.432404 0.0 ${n_times_xhi} units box
region supercell block 0.0 21.432404 0.0 21.432404 0.0 21.432404 units box

# Define dimensions of the supercell
#region supercell block 0.0 10.9349 0.0 10.9349 0.0 10.9349 units box

# Create the supercell
replicate 4 4 4
Replication is creating a 4x4x4 = 64 times larger system...
  orthogonal box = (0 0 0) to (21.432404 21.432404 21.432404)
  1 by 1 by 1 MPI processor grid
  768 atoms
  replicate CPU = 0.000 seconds

#Null indicates that the default ReaxFF parameters will be used. checkqeq yes allows charge equilibration method to be used.
#Relevant default parameter: Cutoff distance is found in field.reax: !Upper Taper-radius
pair_style reaxff NULL checkqeq yes

pair_coeff * * field.reax O Ce

neighbor        2.0 bin
neigh_modify every 10 delay 0 check yes

#Only relevant for MD, not minimization
#fix             1 all nve

#Allows for charge equilibration
fix qeq all qeq/reaxff 1 0.0 10.0 1.0e-6 reaxff

dump mydmp all atom 1 dump.lammpstrj

# Perform minimization
min_style       cg
minimize        1.0e-4 1.0e-6 100 1000
Switching to 'neigh_modify every 1 delay 0 check yes' setting during minimization
Neighbor list info ...
  update: every = 1 steps, delay = 0 steps, check = yes
  max neighbors/atom: 2000, page size: 100000
  master list distance cutoff = 12
  ghost atom cutoff = 12
  binsize = 6, bins = 4 4 4
  2 neighbor lists, perpetual/occasional/extra = 2 0 0
  (1) pair reaxff, perpetual
      attributes: half, newton off, ghost
      pair build: half/bin/newtoff/ghost
      stencil: full/ghost/bin/3d
      bin: standard
  (2) fix qeq/reaxff, perpetual, copy from (1)
      attributes: half, newton off
      pair build: copy
      stencil: none
      bin: none
Per MPI rank memory allocation (min/avg/max) = 173.2 | 173.2 | 173.2 Mbytes
   Step          Temp          E_pair         E_mol          TotEng         Press     
         0   0             -40969.74       0             -40969.74       2162669.7    
         1   0             -40969.74       0             -40969.74       2162669.7    
Loop time of 0.39571 on 1 procs for 1 steps with 768 atoms

93.6% CPU use with 1 MPI tasks x no OpenMP threads

Minimization stats:
  Stopping criterion = energy tolerance
  Energy initial, next-to-last, final = 
     -40969.7399835147  -40969.7399835147  -40969.7399835255
  Force two-norm initial, final = 9.0295054e-11 0.000131555
  Force max component initial, final = 4.0474291e-12 7.97214e-06
  Final line search alpha, max atom move = 1 7.97214e-06
  Iterations, force evaluations = 1 2

MPI task timing breakdown:
Section |  min time  |  avg time  |  max time  |%varavg| %total
---------------------------------------------------------------
Pair    | 0.36792    | 0.36792    | 0.36792    |   0.0 | 92.98
Neigh   | 0          | 0          | 0          |   0.0 |  0.00
Comm    | 7.5915e-05 | 7.5915e-05 | 7.5915e-05 |   0.0 |  0.02
Output  | 0          | 0          | 0          |   0.0 |  0.00
Modify  | 0.027134   | 0.027134   | 0.027134   |   0.0 |  6.86
Other   |            | 0.0005831  |            |       |  0.15

Nlocal:            768 ave         768 max         768 min
Histogram: 1 0 0 0 0 0 0 0 0 0
Nghost:           5785 ave        5785 max        5785 min
Histogram: 1 0 0 0 0 0 0 0 0 0
Neighs:         329003 ave      329003 max      329003 min
Histogram: 1 0 0 0 0 0 0 0 0 0

Total # of neighbors = 329003
Ave neighs/atom = 428.38932
Neighbor list builds = 0
Dangerous builds = 0

thermo          100
clear
#ReaxFF for CeO2

#Real units, see LAMMPS documentation
units real

#Periodic boundary
boundary p p p

#Specifies that atoms will have a charge
atom_style charge

#Reads data from file. Formatting of file alligns with examples from LAMMPS github repository
read_data data_0.99.CeO2
Reading data file ...
  orthogonal box = (0 0 0) to (5.4127755 5.4127755 5.4127755)
  1 by 1 by 1 MPI processor grid
  reading atoms ...
  12 atoms
  read_data CPU = 0.000 seconds

# Access and print the value of xhi
variable xhi equal "xhi"
#print "xhi = ${xhi}"

# Calculate n*xhi where n is the number of unit cells per side of the supercell
variable n_times_xhi equal 4*${xhi}
variable n_times_xhi equal 4*5.4127755
#print "4 * xhi = ${n_times_xhi}"

# Define dimensions of the supercell using 2*xhi
region supercell block 0.0 ${n_times_xhi} 0.0 ${n_times_xhi} 0.0 ${n_times_xhi} units box
region supercell block 0.0 21.651102 0.0 ${n_times_xhi} 0.0 ${n_times_xhi} units box
region supercell block 0.0 21.651102 0.0 21.651102 0.0 ${n_times_xhi} units box
region supercell block 0.0 21.651102 0.0 21.651102 0.0 21.651102 units box

# Define dimensions of the supercell
#region supercell block 0.0 10.9349 0.0 10.9349 0.0 10.9349 units box

# Create the supercell
replicate 4 4 4
Replication is creating a 4x4x4 = 64 times larger system...
  orthogonal box = (0 0 0) to (21.651102 21.651102 21.651102)
  1 by 1 by 1 MPI processor grid
  768 atoms
  replicate CPU = 0.000 seconds

#Null indicates that the default ReaxFF parameters will be used. checkqeq yes allows charge equilibration method to be used.
#Relevant default parameter: Cutoff distance is found in field.reax: !Upper Taper-radius
pair_style reaxff NULL checkqeq yes

pair_coeff * * field.reax O Ce

neighbor        2.0 bin
neigh_modify every 10 delay 0 check yes

#Only relevant for MD, not minimization
#fix             1 all nve

#Allows for charge equilibration
fix qeq all qeq/reaxff 1 0.0 10.0 1.0e-6 reaxff

dump mydmp all atom 1 dump.lammpstrj

# Perform minimization
min_style       cg
minimize        1.0e-4 1.0e-6 100 1000
Switching to 'neigh_modify every 1 delay 0 check yes' setting during minimization
Neighbor list info ...
  update: every = 1 steps, delay = 0 steps, check = yes
  max neighbors/atom: 2000, page size: 100000
  master list distance cutoff = 12
  ghost atom cutoff = 12
  binsize = 6, bins = 4 4 4
  2 neighbor lists, perpetual/occasional/extra = 2 0 0
  (1) pair reaxff, perpetual
      attributes: half, newton off, ghost
      pair build: half/bin/newtoff/ghost
      stencil: full/ghost/bin/3d
      bin: standard
  (2) fix qeq/reaxff, perpetual, copy from (1)
      attributes: half, newton off
      pair build: copy
      stencil: none
      bin: none
Per MPI rank memory allocation (min/avg/max) = 173 | 173 | 173 Mbytes
   Step          Temp          E_pair         E_mol          TotEng         Press     
         0   0             -49906.138      0             -49906.138      1873123.4    
         1   0             -49906.138      0             -49906.138      1873123.4    
Loop time of 0.377867 on 1 procs for 1 steps with 768 atoms

96.4% CPU use with 1 MPI tasks x no OpenMP threads

Minimization stats:
  Stopping criterion = energy tolerance
  Energy initial, next-to-last, final = 
     -49906.1379086001  -49906.1379086001  -49906.1379086062
  Force two-norm initial, final = 6.4309058e-11 0.00014353222
  Force max component initial, final = 4.336087e-12 8.8655282e-06
  Final line search alpha, max atom move = 1 8.8655282e-06
  Iterations, force evaluations = 1 2

MPI task timing breakdown:
Section |  min time  |  avg time  |  max time  |%varavg| %total
---------------------------------------------------------------
Pair    | 0.35054    | 0.35054    | 0.35054    |   0.0 | 92.77
Neigh   | 0          | 0          | 0          |   0.0 |  0.00
Comm    | 7.454e-05  | 7.454e-05  | 7.454e-05  |   0.0 |  0.02
Output  | 0          | 0          | 0          |   0.0 |  0.00
Modify  | 0.026577   | 0.026577   | 0.026577   |   0.0 |  7.03
Other   |            | 0.0006725  |            |       |  0.18

Nlocal:            768 ave         768 max         768 min
Histogram: 1 0 0 0 0 0 0 0 0 0
Nghost:           5785 ave        5785 max        5785 min
Histogram: 1 0 0 0 0 0 0 0 0 0
Neighs:         314027 ave      314027 max      314027 min
Histogram: 1 0 0 0 0 0 0 0 0 0

Total # of neighbors = 314027
Ave neighs/atom = 408.88932
Neighbor list builds = 0
Dangerous builds = 0

thermo          100
clear
#ReaxFF for CeO2

#Real units, see LAMMPS documentation
units real

#Periodic boundary
boundary p p p

#Specifies that atoms will have a charge
atom_style charge

#Reads data from file. Formatting of file alligns with examples from LAMMPS github repository
read_data data_1.00.CeO2
Reading data file ...
  orthogonal box = (0 0 0) to (5.46745 5.46745 5.46745)
  1 by 1 by 1 MPI processor grid
  reading atoms ...
  12 atoms
  read_data CPU = 0.000 seconds

# Access and print the value of xhi
variable xhi equal "xhi"
#print "xhi = ${xhi}"

# Calculate n*xhi where n is the number of unit cells per side of the supercell
variable n_times_xhi equal 4*${xhi}
variable n_times_xhi equal 4*5.46745
#print "4 * xhi = ${n_times_xhi}"

# Define dimensions of the supercell using 2*xhi
region supercell block 0.0 ${n_times_xhi} 0.0 ${n_times_xhi} 0.0 ${n_times_xhi} units box
region supercell block 0.0 21.8698 0.0 ${n_times_xhi} 0.0 ${n_times_xhi} units box
region supercell block 0.0 21.8698 0.0 21.8698 0.0 ${n_times_xhi} units box
region supercell block 0.0 21.8698 0.0 21.8698 0.0 21.8698 units box

# Define dimensions of the supercell
#region supercell block 0.0 10.9349 0.0 10.9349 0.0 10.9349 units box

# Create the supercell
replicate 4 4 4
Replication is creating a 4x4x4 = 64 times larger system...
  orthogonal box = (0 0 0) to (21.8698 21.8698 21.8698)
  1 by 1 by 1 MPI processor grid
  768 atoms
  replicate CPU = 0.000 seconds

#Null indicates that the default ReaxFF parameters will be used. checkqeq yes allows charge equilibration method to be used.
#Relevant default parameter: Cutoff distance is found in field.reax: !Upper Taper-radius
pair_style reaxff NULL checkqeq yes

pair_coeff * * field.reax O Ce

neighbor        2.0 bin
neigh_modify every 10 delay 0 check yes

#Only relevant for MD, not minimization
#fix             1 all nve

#Allows for charge equilibration
fix qeq all qeq/reaxff 1 0.0 10.0 1.0e-6 reaxff

dump mydmp all atom 1 dump.lammpstrj

# Perform minimization
min_style       cg
minimize        1.0e-4 1.0e-6 100 1000
Switching to 'neigh_modify every 1 delay 0 check yes' setting during minimization
Neighbor list info ...
  update: every = 1 steps, delay = 0 steps, check = yes
  max neighbors/atom: 2000, page size: 100000
  master list distance cutoff = 12
  ghost atom cutoff = 12
  binsize = 6, bins = 4 4 4
  2 neighbor lists, perpetual/occasional/extra = 2 0 0
  (1) pair reaxff, perpetual
      attributes: half, newton off, ghost
      pair build: half/bin/newtoff/ghost
      stencil: full/ghost/bin/3d
      bin: standard
  (2) fix qeq/reaxff, perpetual, copy from (1)
      attributes: half, newton off
      pair build: copy
      stencil: none
      bin: none
Per MPI rank memory allocation (min/avg/max) = 173 | 173 | 173 Mbytes
   Step          Temp          E_pair         E_mol          TotEng         Press     
         0   0             -57815.101      0             -57815.101      1626827.5    
         1   0             -57815.101      0             -57815.101      1626827.5    
Loop time of 0.49578 on 1 procs for 1 steps with 768 atoms

97.4% CPU use with 1 MPI tasks x no OpenMP threads

Minimization stats:
  Stopping criterion = linesearch alpha is zero
  Energy initial, next-to-last, final = 
     -57815.1005337374  -57815.1005337374  -57815.1005337361
  Force two-norm initial, final = 4.0596296e-11 0.00020249701
  Force max component initial, final = 2.7835512e-12 2.3010619e-05
  Final line search alpha, max atom move = 0.5 1.150531e-05
  Iterations, force evaluations = 1 3

MPI task timing breakdown:
Section |  min time  |  avg time  |  max time  |%varavg| %total
---------------------------------------------------------------
Pair    | 0.46224    | 0.46224    | 0.46224    |   0.0 | 93.23
Neigh   | 0          | 0          | 0          |   0.0 |  0.00
Comm    | 0.00010025 | 0.00010025 | 0.00010025 |   0.0 |  0.02
Output  | 0          | 0          | 0          |   0.0 |  0.00
Modify  | 0.032811   | 0.032811   | 0.032811   |   0.0 |  6.62
Other   |            | 0.0006299  |            |       |  0.13

Nlocal:            768 ave         768 max         768 min
Histogram: 1 0 0 0 0 0 0 0 0 0
Nghost:           5785 ave        5785 max        5785 min
Histogram: 1 0 0 0 0 0 0 0 0 0
Neighs:         314027 ave      314027 max      314027 min
Histogram: 1 0 0 0 0 0 0 0 0 0

Total # of neighbors = 314027
Ave neighs/atom = 408.88932
Neighbor list builds = 0
Dangerous builds = 0

thermo          100
clear
#ReaxFF for CeO2

#Real units, see LAMMPS documentation
units real

#Periodic boundary
boundary p p p

#Specifies that atoms will have a charge
atom_style charge

#Reads data from file. Formatting of file alligns with examples from LAMMPS github repository
read_data data_1.01.CeO2
Reading data file ...
  orthogonal box = (0 0 0) to (5.5221245 5.5221245 5.5221245)
  1 by 1 by 1 MPI processor grid
  reading atoms ...
  12 atoms
  read_data CPU = 0.000 seconds

# Access and print the value of xhi
variable xhi equal "xhi"
#print "xhi = ${xhi}"

# Calculate n*xhi where n is the number of unit cells per side of the supercell
variable n_times_xhi equal 4*${xhi}
variable n_times_xhi equal 4*5.5221245
#print "4 * xhi = ${n_times_xhi}"

# Define dimensions of the supercell using 2*xhi
region supercell block 0.0 ${n_times_xhi} 0.0 ${n_times_xhi} 0.0 ${n_times_xhi} units box
region supercell block 0.0 22.088498 0.0 ${n_times_xhi} 0.0 ${n_times_xhi} units box
region supercell block 0.0 22.088498 0.0 22.088498 0.0 ${n_times_xhi} units box
region supercell block 0.0 22.088498 0.0 22.088498 0.0 22.088498 units box

# Define dimensions of the supercell
#region supercell block 0.0 10.9349 0.0 10.9349 0.0 10.9349 units box

# Create the supercell
replicate 4 4 4
Replication is creating a 4x4x4 = 64 times larger system...
  orthogonal box = (0 0 0) to (22.088498 22.088498 22.088498)
  1 by 1 by 1 MPI processor grid
  768 atoms
  replicate CPU = 0.000 seconds

#Null indicates that the default ReaxFF parameters will be used. checkqeq yes allows charge equilibration method to be used.
#Relevant default parameter: Cutoff distance is found in field.reax: !Upper Taper-radius
pair_style reaxff NULL checkqeq yes

pair_coeff * * field.reax O Ce

neighbor        2.0 bin
neigh_modify every 10 delay 0 check yes

#Only relevant for MD, not minimization
#fix             1 all nve

#Allows for charge equilibration
fix qeq all qeq/reaxff 1 0.0 10.0 1.0e-6 reaxff

dump mydmp all atom 1 dump.lammpstrj

# Perform minimization
min_style       cg
minimize        1.0e-4 1.0e-6 100 1000
Switching to 'neigh_modify every 1 delay 0 check yes' setting during minimization
Neighbor list info ...
  update: every = 1 steps, delay = 0 steps, check = yes
  max neighbors/atom: 2000, page size: 100000
  master list distance cutoff = 12
  ghost atom cutoff = 12
  binsize = 6, bins = 4 4 4
  2 neighbor lists, perpetual/occasional/extra = 2 0 0
  (1) pair reaxff, perpetual
      attributes: half, newton off, ghost
      pair build: half/bin/newtoff/ghost
      stencil: full/ghost/bin/3d
      bin: standard
  (2) fix qeq/reaxff, perpetual, copy from (1)
      attributes: half, newton off
      pair build: copy
      stencil: none
      bin: none
Per MPI rank memory allocation (min/avg/max) = 172.1 | 172.1 | 172.1 Mbytes
   Step          Temp          E_pair         E_mol          TotEng         Press     
         0   0             -64829.537      0             -64829.537      1415436.6    
         1   0             -64829.537      0             -64829.537      1415436.6    
Loop time of 0.495968 on 1 procs for 1 steps with 768 atoms

97.1% CPU use with 1 MPI tasks x no OpenMP threads

Minimization stats:
  Stopping criterion = linesearch alpha is zero
  Energy initial, next-to-last, final = 
      -64829.536811064   -64829.536811064   -64829.536811056
  Force two-norm initial, final = 6.302306e-11 0.00018158432
  Force max component initial, final = 3.3111291e-12 1.3707492e-05
  Final line search alpha, max atom move = 0.5 6.8537461e-06
  Iterations, force evaluations = 1 3

MPI task timing breakdown:
Section |  min time  |  avg time  |  max time  |%varavg| %total
---------------------------------------------------------------
Pair    | 0.4625     | 0.4625     | 0.4625     |   0.0 | 93.25
Neigh   | 0          | 0          | 0          |   0.0 |  0.00
Comm    | 9.8667e-05 | 9.8667e-05 | 9.8667e-05 |   0.0 |  0.02
Output  | 0          | 0          | 0          |   0.0 |  0.00
Modify  | 0.032715   | 0.032715   | 0.032715   |   0.0 |  6.60
Other   |            | 0.0006554  |            |       |  0.13

Nlocal:            768 ave         768 max         768 min
Histogram: 1 0 0 0 0 0 0 0 0 0
Nghost:           5785 ave        5785 max        5785 min
Histogram: 1 0 0 0 0 0 0 0 0 0
Neighs:         303839 ave      303839 max      303839 min
Histogram: 1 0 0 0 0 0 0 0 0 0

Total # of neighbors = 303839
Ave neighs/atom = 395.6237
Neighbor list builds = 0
Dangerous builds = 0

thermo          100
clear
#ReaxFF for CeO2

#Real units, see LAMMPS documentation
units real

#Periodic boundary
boundary p p p

#Specifies that atoms will have a charge
atom_style charge

#Reads data from file. Formatting of file alligns with examples from LAMMPS github repository
read_data data_1.02.CeO2
Reading data file ...
  orthogonal box = (0 0 0) to (5.576799 5.576799 5.576799)
  1 by 1 by 1 MPI processor grid
  reading atoms ...
  12 atoms
  read_data CPU = 0.000 seconds

# Access and print the value of xhi
variable xhi equal "xhi"
#print "xhi = ${xhi}"

# Calculate n*xhi where n is the number of unit cells per side of the supercell
variable n_times_xhi equal 4*${xhi}
variable n_times_xhi equal 4*5.576799
#print "4 * xhi = ${n_times_xhi}"

# Define dimensions of the supercell using 2*xhi
region supercell block 0.0 ${n_times_xhi} 0.0 ${n_times_xhi} 0.0 ${n_times_xhi} units box
region supercell block 0.0 22.307196 0.0 ${n_times_xhi} 0.0 ${n_times_xhi} units box
region supercell block 0.0 22.307196 0.0 22.307196 0.0 ${n_times_xhi} units box
region supercell block 0.0 22.307196 0.0 22.307196 0.0 22.307196 units box

# Define dimensions of the supercell
#region supercell block 0.0 10.9349 0.0 10.9349 0.0 10.9349 units box

# Create the supercell
replicate 4 4 4
Replication is creating a 4x4x4 = 64 times larger system...
  orthogonal box = (0 0 0) to (22.307196 22.307196 22.307196)
  1 by 1 by 1 MPI processor grid
  768 atoms
  replicate CPU = 0.000 seconds

#Null indicates that the default ReaxFF parameters will be used. checkqeq yes allows charge equilibration method to be used.
#Relevant default parameter: Cutoff distance is found in field.reax: !Upper Taper-radius
pair_style reaxff NULL checkqeq yes

pair_coeff * * field.reax O Ce

neighbor        2.0 bin
neigh_modify every 10 delay 0 check yes

#Only relevant for MD, not minimization
#fix             1 all nve

#Allows for charge equilibration
fix qeq all qeq/reaxff 1 0.0 10.0 1.0e-6 reaxff

dump mydmp all atom 1 dump.lammpstrj

# Perform minimization
min_style       cg
minimize        1.0e-4 1.0e-6 100 1000
Switching to 'neigh_modify every 1 delay 0 check yes' setting during minimization
Neighbor list info ...
  update: every = 1 steps, delay = 0 steps, check = yes
  max neighbors/atom: 2000, page size: 100000
  master list distance cutoff = 12
  ghost atom cutoff = 12
  binsize = 6, bins = 4 4 4
  2 neighbor lists, perpetual/occasional/extra = 2 0 0
  (1) pair reaxff, perpetual
      attributes: half, newton off, ghost
      pair build: half/bin/newtoff/ghost
      stencil: full/ghost/bin/3d
      bin: standard
  (2) fix qeq/reaxff, perpetual, copy from (1)
      attributes: half, newton off
      pair build: copy
      stencil: none
      bin: none
Per MPI rank memory allocation (min/avg/max) = 171 | 171 | 171 Mbytes
   Step          Temp          E_pair         E_mol          TotEng         Press     
         0   0             -71056.682      0             -71056.682      1232137      
         1   0             -71056.682      0             -71056.682      1232137      
Loop time of 0.408807 on 1 procs for 1 steps with 768 atoms

90.2% CPU use with 1 MPI tasks x no OpenMP threads

Minimization stats:
  Stopping criterion = energy tolerance
  Energy initial, next-to-last, final = 
     -71056.6824926534  -71056.6824926534  -71056.6824926774
  Force two-norm initial, final = 4.7595945e-11 8.7004792e-05
  Force max component initial, final = 4.0216719e-12 4.8484341e-06
  Final line search alpha, max atom move = 1 4.8484341e-06
  Iterations, force evaluations = 1 2

MPI task timing breakdown:
Section |  min time  |  avg time  |  max time  |%varavg| %total
---------------------------------------------------------------
Pair    | 0.38333    | 0.38333    | 0.38333    |   0.0 | 93.77
Neigh   | 0          | 0          | 0          |   0.0 |  0.00
Comm    | 7.3833e-05 | 7.3833e-05 | 7.3833e-05 |   0.0 |  0.02
Output  | 0          | 0          | 0          |   0.0 |  0.00
Modify  | 0.024765   | 0.024765   | 0.024765   |   0.0 |  6.06
Other   |            | 0.0006377  |            |       |  0.16

Nlocal:            768 ave         768 max         768 min
Histogram: 1 0 0 0 0 0 0 0 0 0
Nghost:           5785 ave        5785 max        5785 min
Histogram: 1 0 0 0 0 0 0 0 0 0
Neighs:         280290 ave      280290 max      280290 min
Histogram: 1 0 0 0 0 0 0 0 0 0

Total # of neighbors = 280290
Ave neighs/atom = 364.96094
Neighbor list builds = 0
Dangerous builds = 0

thermo          100
clear
#ReaxFF for CeO2

#Real units, see LAMMPS documentation
units real

#Periodic boundary
boundary p p p

#Specifies that atoms will have a charge
atom_style charge

#Reads data from file. Formatting of file alligns with examples from LAMMPS github repository
read_data data_1.03.CeO2
Reading data file ...
  orthogonal box = (0 0 0) to (5.6314735 5.6314735 5.6314735)
  1 by 1 by 1 MPI processor grid
  reading atoms ...
  12 atoms
  read_data CPU = 0.000 seconds

# Access and print the value of xhi
variable xhi equal "xhi"
#print "xhi = ${xhi}"

# Calculate n*xhi where n is the number of unit cells per side of the supercell
variable n_times_xhi equal 4*${xhi}
variable n_times_xhi equal 4*5.6314735
#print "4 * xhi = ${n_times_xhi}"

# Define dimensions of the supercell using 2*xhi
region supercell block 0.0 ${n_times_xhi} 0.0 ${n_times_xhi} 0.0 ${n_times_xhi} units box
region supercell block 0.0 22.525894 0.0 ${n_times_xhi} 0.0 ${n_times_xhi} units box
region supercell block 0.0 22.525894 0.0 22.525894 0.0 ${n_times_xhi} units box
region supercell block 0.0 22.525894 0.0 22.525894 0.0 22.525894 units box

# Define dimensions of the supercell
#region supercell block 0.0 10.9349 0.0 10.9349 0.0 10.9349 units box

# Create the supercell
replicate 4 4 4
Replication is creating a 4x4x4 = 64 times larger system...
  orthogonal box = (0 0 0) to (22.525894 22.525894 22.525894)
  1 by 1 by 1 MPI processor grid
  768 atoms
  replicate CPU = 0.000 seconds

#Null indicates that the default ReaxFF parameters will be used. checkqeq yes allows charge equilibration method to be used.
#Relevant default parameter: Cutoff distance is found in field.reax: !Upper Taper-radius
pair_style reaxff NULL checkqeq yes

pair_coeff * * field.reax O Ce

neighbor        2.0 bin
neigh_modify every 10 delay 0 check yes

#Only relevant for MD, not minimization
#fix             1 all nve

#Allows for charge equilibration
fix qeq all qeq/reaxff 1 0.0 10.0 1.0e-6 reaxff

dump mydmp all atom 1 dump.lammpstrj

# Perform minimization
min_style       cg
minimize        1.0e-4 1.0e-6 100 1000
Switching to 'neigh_modify every 1 delay 0 check yes' setting during minimization
Neighbor list info ...
  update: every = 1 steps, delay = 0 steps, check = yes
  max neighbors/atom: 2000, page size: 100000
  master list distance cutoff = 12
  ghost atom cutoff = 12
  binsize = 6, bins = 4 4 4
  2 neighbor lists, perpetual/occasional/extra = 2 0 0
  (1) pair reaxff, perpetual
      attributes: half, newton off, ghost
      pair build: half/bin/newtoff/ghost
      stencil: full/ghost/bin/3d
      bin: standard
  (2) fix qeq/reaxff, perpetual, copy from (1)
      attributes: half, newton off
      pair build: copy
      stencil: none
      bin: none
Per MPI rank memory allocation (min/avg/max) = 171 | 171 | 171 Mbytes
   Step          Temp          E_pair         E_mol          TotEng         Press     
         0   0             -76582.898      0             -76582.898      1071638.3    
         1   0             -76582.898      0             -76582.898      1071638.3    
Loop time of 0.362322 on 1 procs for 1 steps with 768 atoms

96.3% CPU use with 1 MPI tasks x no OpenMP threads

Minimization stats:
  Stopping criterion = energy tolerance
  Energy initial, next-to-last, final = 
     -76582.8976864904  -76582.8976864904  -76582.8976864883
  Force two-norm initial, final = 3.8353875e-11 3.6753622e-05
  Force max component initial, final = 3.3142378e-12 2.2538119e-06
  Final line search alpha, max atom move = 1 2.2538119e-06
  Iterations, force evaluations = 1 2

MPI task timing breakdown:
Section |  min time  |  avg time  |  max time  |%varavg| %total
---------------------------------------------------------------
Pair    | 0.33926    | 0.33926    | 0.33926    |   0.0 | 93.64
Neigh   | 0          | 0          | 0          |   0.0 |  0.00
Comm    | 7.4999e-05 | 7.4999e-05 | 7.4999e-05 |   0.0 |  0.02
Output  | 0          | 0          | 0          |   0.0 |  0.00
Modify  | 0.022299   | 0.022299   | 0.022299   |   0.0 |  6.15
Other   |            | 0.0006838  |            |       |  0.19

Nlocal:            768 ave         768 max         768 min
Histogram: 1 0 0 0 0 0 0 0 0 0
Nghost:           5785 ave        5785 max        5785 min
Histogram: 1 0 0 0 0 0 0 0 0 0
Neighs:         280290 ave      280290 max      280290 min
Histogram: 1 0 0 0 0 0 0 0 0 0

Total # of neighbors = 280290
Ave neighs/atom = 364.96094
Neighbor list builds = 0
Dangerous builds = 0

thermo          100
clear
#ReaxFF for CeO2

#Real units, see LAMMPS documentation
units real

#Periodic boundary
boundary p p p

#Specifies that atoms will have a charge
atom_style charge

#Reads data from file. Formatting of file alligns with examples from LAMMPS github repository
read_data data_1.04.CeO2
Reading data file ...
  orthogonal box = (0 0 0) to (5.686148 5.686148 5.686148)
  1 by 1 by 1 MPI processor grid
  reading atoms ...
  12 atoms
  read_data CPU = 0.000 seconds

# Access and print the value of xhi
variable xhi equal "xhi"
#print "xhi = ${xhi}"

# Calculate n*xhi where n is the number of unit cells per side of the supercell
variable n_times_xhi equal 4*${xhi}
variable n_times_xhi equal 4*5.686148
#print "4 * xhi = ${n_times_xhi}"

# Define dimensions of the supercell using 2*xhi
region supercell block 0.0 ${n_times_xhi} 0.0 ${n_times_xhi} 0.0 ${n_times_xhi} units box
region supercell block 0.0 22.744592 0.0 ${n_times_xhi} 0.0 ${n_times_xhi} units box
region supercell block 0.0 22.744592 0.0 22.744592 0.0 ${n_times_xhi} units box
region supercell block 0.0 22.744592 0.0 22.744592 0.0 22.744592 units box

# Define dimensions of the supercell
#region supercell block 0.0 10.9349 0.0 10.9349 0.0 10.9349 units box

# Create the supercell
replicate 4 4 4
Replication is creating a 4x4x4 = 64 times larger system...
  orthogonal box = (0 0 0) to (22.744592 22.744592 22.744592)
  1 by 1 by 1 MPI processor grid
  768 atoms
  replicate CPU = 0.000 seconds

#Null indicates that the default ReaxFF parameters will be used. checkqeq yes allows charge equilibration method to be used.
#Relevant default parameter: Cutoff distance is found in field.reax: !Upper Taper-radius
pair_style reaxff NULL checkqeq yes

pair_coeff * * field.reax O Ce

neighbor        2.0 bin
neigh_modify every 10 delay 0 check yes

#Only relevant for MD, not minimization
#fix             1 all nve

#Allows for charge equilibration
fix qeq all qeq/reaxff 1 0.0 10.0 1.0e-6 reaxff

dump mydmp all atom 1 dump.lammpstrj

# Perform minimization
min_style       cg
minimize        1.0e-4 1.0e-6 100 1000
Switching to 'neigh_modify every 1 delay 0 check yes' setting during minimization
Neighbor list info ...
  update: every = 1 steps, delay = 0 steps, check = yes
  max neighbors/atom: 2000, page size: 100000
  master list distance cutoff = 12
  ghost atom cutoff = 12
  binsize = 6, bins = 4 4 4
  2 neighbor lists, perpetual/occasional/extra = 2 0 0
  (1) pair reaxff, perpetual
      attributes: half, newton off, ghost
      pair build: half/bin/newtoff/ghost
      stencil: full/ghost/bin/3d
      bin: standard
  (2) fix qeq/reaxff, perpetual, copy from (1)
      attributes: half, newton off
      pair build: copy
      stencil: none
      bin: none
Per MPI rank memory allocation (min/avg/max) = 170.7 | 170.7 | 170.7 Mbytes
   Step          Temp          E_pair         E_mol          TotEng         Press     
         0   0             -81478.24       0             -81478.24       929777.02    
         1   0             -81478.24       0             -81478.24       929777.02    
Loop time of 0.361811 on 1 procs for 1 steps with 768 atoms

96.2% CPU use with 1 MPI tasks x no OpenMP threads

Minimization stats:
  Stopping criterion = energy tolerance
  Energy initial, next-to-last, final = 
     -81478.2404113072  -81478.2404113072  -81478.2404113122
  Force two-norm initial, final = 3.1954196e-11 1.3272294e-05
  Force max component initial, final = 2.6076918e-12 9.9517861e-07
  Final line search alpha, max atom move = 1 9.9517861e-07
  Iterations, force evaluations = 1 2

MPI task timing breakdown:
Section |  min time  |  avg time  |  max time  |%varavg| %total
---------------------------------------------------------------
Pair    | 0.33865    | 0.33865    | 0.33865    |   0.0 | 93.60
Neigh   | 0          | 0          | 0          |   0.0 |  0.00
Comm    | 7.5459e-05 | 7.5459e-05 | 7.5459e-05 |   0.0 |  0.02
Output  | 0          | 0          | 0          |   0.0 |  0.00
Modify  | 0.022452   | 0.022452   | 0.022452   |   0.0 |  6.21
Other   |            | 0.000629   |            |       |  0.17

Nlocal:            768 ave         768 max         768 min
Histogram: 1 0 0 0 0 0 0 0 0 0
Nghost:           5785 ave        5785 max        5785 min
Histogram: 1 0 0 0 0 0 0 0 0 0
Neighs:         257970 ave      257970 max      257970 min
Histogram: 1 0 0 0 0 0 0 0 0 0

Total # of neighbors = 257970
Ave neighs/atom = 335.89844
Neighbor list builds = 0
Dangerous builds = 0

thermo          100
clear
#ReaxFF for CeO2

#Real units, see LAMMPS documentation
units real

#Periodic boundary
boundary p p p

#Specifies that atoms will have a charge
atom_style charge

#Reads data from file. Formatting of file alligns with examples from LAMMPS github repository
read_data data_1.05.CeO2
Reading data file ...
  orthogonal box = (0 0 0) to (5.7408225 5.7408225 5.7408225)
  1 by 1 by 1 MPI processor grid
  reading atoms ...
  12 atoms
  read_data CPU = 0.000 seconds

# Access and print the value of xhi
variable xhi equal "xhi"
#print "xhi = ${xhi}"

# Calculate n*xhi where n is the number of unit cells per side of the supercell
variable n_times_xhi equal 4*${xhi}
variable n_times_xhi equal 4*5.7408225
#print "4 * xhi = ${n_times_xhi}"

# Define dimensions of the supercell using 2*xhi
region supercell block 0.0 ${n_times_xhi} 0.0 ${n_times_xhi} 0.0 ${n_times_xhi} units box
region supercell block 0.0 22.96329 0.0 ${n_times_xhi} 0.0 ${n_times_xhi} units box
region supercell block 0.0 22.96329 0.0 22.96329 0.0 ${n_times_xhi} units box
region supercell block 0.0 22.96329 0.0 22.96329 0.0 22.96329 units box

# Define dimensions of the supercell
#region supercell block 0.0 10.9349 0.0 10.9349 0.0 10.9349 units box

# Create the supercell
replicate 4 4 4
Replication is creating a 4x4x4 = 64 times larger system...
  orthogonal box = (0 0 0) to (22.96329 22.96329 22.96329)
  1 by 1 by 1 MPI processor grid
  768 atoms
  replicate CPU = 0.000 seconds

#Null indicates that the default ReaxFF parameters will be used. checkqeq yes allows charge equilibration method to be used.
#Relevant default parameter: Cutoff distance is found in field.reax: !Upper Taper-radius
pair_style reaxff NULL checkqeq yes

pair_coeff * * field.reax O Ce

neighbor        2.0 bin
neigh_modify every 10 delay 0 check yes

#Only relevant for MD, not minimization
#fix             1 all nve

#Allows for charge equilibration
fix qeq all qeq/reaxff 1 0.0 10.0 1.0e-6 reaxff

dump mydmp all atom 1 dump.lammpstrj

# Perform minimization
min_style       cg
minimize        1.0e-4 1.0e-6 100 1000
Switching to 'neigh_modify every 1 delay 0 check yes' setting during minimization
Neighbor list info ...
  update: every = 1 steps, delay = 0 steps, check = yes
  max neighbors/atom: 2000, page size: 100000
  master list distance cutoff = 12
  ghost atom cutoff = 12
  binsize = 6, bins = 4 4 4
  2 neighbor lists, perpetual/occasional/extra = 2 0 0
  (1) pair reaxff, perpetual
      attributes: half, newton off, ghost
      pair build: half/bin/newtoff/ghost
      stencil: full/ghost/bin/3d
      bin: standard
  (2) fix qeq/reaxff, perpetual, copy from (1)
      attributes: half, newton off
      pair build: copy
      stencil: none
      bin: none
Per MPI rank memory allocation (min/avg/max) = 170.7 | 170.7 | 170.7 Mbytes
   Step          Temp          E_pair         E_mol          TotEng         Press     
         0   0             -85799.656      0             -85799.656      803328.95    
         1   0             -85799.656      0             -85799.656      803328.95    
Loop time of 0.402523 on 1 procs for 1 steps with 768 atoms

97.2% CPU use with 1 MPI tasks x no OpenMP threads

Minimization stats:
  Stopping criterion = linesearch alpha is zero
  Energy initial, next-to-last, final = 
     -85799.6562351838  -85799.6562351838  -85799.6562351799
  Force two-norm initial, final = 2.1404241e-11 8.6493691e-05
  Force max component initial, final = 1.8296475e-12 6.0744425e-06
  Final line search alpha, max atom move = 0.5 3.0372213e-06
  Iterations, force evaluations = 1 3

MPI task timing breakdown:
Section |  min time  |  avg time  |  max time  |%varavg| %total
---------------------------------------------------------------
Pair    | 0.37447    | 0.37447    | 0.37447    |   0.0 | 93.03
Neigh   | 0          | 0          | 0          |   0.0 |  0.00
Comm    | 0.00010167 | 0.00010167 | 0.00010167 |   0.0 |  0.03
Output  | 0          | 0          | 0          |   0.0 |  0.00
Modify  | 0.027402   | 0.027402   | 0.027402   |   0.0 |  6.81
Other   |            | 0.0005462  |            |       |  0.14

Nlocal:            768 ave         768 max         768 min
Histogram: 1 0 0 0 0 0 0 0 0 0
Nghost:           5785 ave        5785 max        5785 min
Histogram: 1 0 0 0 0 0 0 0 0 0
Neighs:         257970 ave      257970 max      257970 min
Histogram: 1 0 0 0 0 0 0 0 0 0

Total # of neighbors = 257970
Ave neighs/atom = 335.89844
Neighbor list builds = 0
Dangerous builds = 0

thermo          100
clear
#ReaxFF for CeO2

#Real units, see LAMMPS documentation
units real

#Periodic boundary
boundary p p p

#Specifies that atoms will have a charge
atom_style charge

#Reads data from file. Formatting of file alligns with examples from LAMMPS github repository
read_data data_1.06.CeO2
Reading data file ...
  orthogonal box = (0 0 0) to (5.795497 5.795497 5.795497)
  1 by 1 by 1 MPI processor grid
  reading atoms ...
  12 atoms
  read_data CPU = 0.000 seconds

# Access and print the value of xhi
variable xhi equal "xhi"
#print "xhi = ${xhi}"

# Calculate n*xhi where n is the number of unit cells per side of the supercell
variable n_times_xhi equal 4*${xhi}
variable n_times_xhi equal 4*5.795497
#print "4 * xhi = ${n_times_xhi}"

# Define dimensions of the supercell using 2*xhi
region supercell block 0.0 ${n_times_xhi} 0.0 ${n_times_xhi} 0.0 ${n_times_xhi} units box
region supercell block 0.0 23.181988 0.0 ${n_times_xhi} 0.0 ${n_times_xhi} units box
region supercell block 0.0 23.181988 0.0 23.181988 0.0 ${n_times_xhi} units box
region supercell block 0.0 23.181988 0.0 23.181988 0.0 23.181988 units box

# Define dimensions of the supercell
#region supercell block 0.0 10.9349 0.0 10.9349 0.0 10.9349 units box

# Create the supercell
replicate 4 4 4
Replication is creating a 4x4x4 = 64 times larger system...
  orthogonal box = (0 0 0) to (23.181988 23.181988 23.181988)
  1 by 1 by 1 MPI processor grid
  768 atoms
  replicate CPU = 0.000 seconds

#Null indicates that the default ReaxFF parameters will be used. checkqeq yes allows charge equilibration method to be used.
#Relevant default parameter: Cutoff distance is found in field.reax: !Upper Taper-radius
pair_style reaxff NULL checkqeq yes

pair_coeff * * field.reax O Ce

neighbor        2.0 bin
neigh_modify every 10 delay 0 check yes

#Only relevant for MD, not minimization
#fix             1 all nve

#Allows for charge equilibration
fix qeq all qeq/reaxff 1 0.0 10.0 1.0e-6 reaxff

dump mydmp all atom 1 dump.lammpstrj

# Perform minimization
min_style       cg
minimize        1.0e-4 1.0e-6 100 1000
Switching to 'neigh_modify every 1 delay 0 check yes' setting during minimization
Neighbor list info ...
  update: every = 1 steps, delay = 0 steps, check = yes
  max neighbors/atom: 2000, page size: 100000
  master list distance cutoff = 12
  ghost atom cutoff = 12
  binsize = 6, bins = 4 4 4
  2 neighbor lists, perpetual/occasional/extra = 2 0 0
  (1) pair reaxff, perpetual
      attributes: half, newton off, ghost
      pair build: half/bin/newtoff/ghost
      stencil: full/ghost/bin/3d
      bin: standard
  (2) fix qeq/reaxff, perpetual, copy from (1)
      attributes: half, newton off
      pair build: copy
      stencil: none
      bin: none
Per MPI rank memory allocation (min/avg/max) = 142 | 142 | 142 Mbytes
   Step          Temp          E_pair         E_mol          TotEng         Press     
         0   0             -89594.826      0             -89594.826      691360.08    
         1   0             -89594.826      0             -89594.826      691360.08    
Loop time of 0.253798 on 1 procs for 1 steps with 768 atoms

99.5% CPU use with 1 MPI tasks x no OpenMP threads

Minimization stats:
  Stopping criterion = linesearch alpha is zero
  Energy initial, next-to-last, final = 
     -89594.8261454702  -89594.8261454702  -89594.8261454692
  Force two-norm initial, final = 3.948328e-11 3.2191831e-05
  Force max component initial, final = 3.2830579e-12 2.1546291e-06
  Final line search alpha, max atom move = 0.5 1.0773146e-06
  Iterations, force evaluations = 1 2

MPI task timing breakdown:
Section |  min time  |  avg time  |  max time  |%varavg| %total
---------------------------------------------------------------
Pair    | 0.23169    | 0.23169    | 0.23169    |   0.0 | 91.29
Neigh   | 0          | 0          | 0          |   0.0 |  0.00
Comm    | 7.475e-05  | 7.475e-05  | 7.475e-05  |   0.0 |  0.03
Output  | 0          | 0          | 0          |   0.0 |  0.00
Modify  | 0.021432   | 0.021432   | 0.021432   |   0.0 |  8.44
Other   |            | 0.0006004  |            |       |  0.24

Nlocal:            768 ave         768 max         768 min
Histogram: 1 0 0 0 0 0 0 0 0 0
Nghost:           5785 ave        5785 max        5785 min
Histogram: 1 0 0 0 0 0 0 0 0 0
Neighs:         257970 ave      257970 max      257970 min
Histogram: 1 0 0 0 0 0 0 0 0 0

Total # of neighbors = 257970
Ave neighs/atom = 335.89844
Neighbor list builds = 0
Dangerous builds = 0

thermo          100
clear
#ReaxFF for CeO2

#Real units, see LAMMPS documentation
units real

#Periodic boundary
boundary p p p

#Specifies that atoms will have a charge
atom_style charge

#Reads data from file. Formatting of file alligns with examples from LAMMPS github repository
read_data data_1.07.CeO2
Reading data file ...
  orthogonal box = (0 0 0) to (5.8501715 5.8501715 5.8501715)
  1 by 1 by 1 MPI processor grid
  reading atoms ...
  12 atoms
  read_data CPU = 0.000 seconds

# Access and print the value of xhi
variable xhi equal "xhi"
#print "xhi = ${xhi}"

# Calculate n*xhi where n is the number of unit cells per side of the supercell
variable n_times_xhi equal 4*${xhi}
variable n_times_xhi equal 4*5.8501715
#print "4 * xhi = ${n_times_xhi}"

# Define dimensions of the supercell using 2*xhi
region supercell block 0.0 ${n_times_xhi} 0.0 ${n_times_xhi} 0.0 ${n_times_xhi} units box
region supercell block 0.0 23.400686 0.0 ${n_times_xhi} 0.0 ${n_times_xhi} units box
region supercell block 0.0 23.400686 0.0 23.400686 0.0 ${n_times_xhi} units box
region supercell block 0.0 23.400686 0.0 23.400686 0.0 23.400686 units box

# Define dimensions of the supercell
#region supercell block 0.0 10.9349 0.0 10.9349 0.0 10.9349 units box

# Create the supercell
replicate 4 4 4
Replication is creating a 4x4x4 = 64 times larger system...
  orthogonal box = (0 0 0) to (23.400686 23.400686 23.400686)
  1 by 1 by 1 MPI processor grid
  768 atoms
  replicate CPU = 0.000 seconds

#Null indicates that the default ReaxFF parameters will be used. checkqeq yes allows charge equilibration method to be used.
#Relevant default parameter: Cutoff distance is found in field.reax: !Upper Taper-radius
pair_style reaxff NULL checkqeq yes

pair_coeff * * field.reax O Ce

neighbor        2.0 bin
neigh_modify every 10 delay 0 check yes

#Only relevant for MD, not minimization
#fix             1 all nve

#Allows for charge equilibration
fix qeq all qeq/reaxff 1 0.0 10.0 1.0e-6 reaxff

dump mydmp all atom 1 dump.lammpstrj

# Perform minimization
min_style       cg
minimize        1.0e-4 1.0e-6 100 1000
Switching to 'neigh_modify every 1 delay 0 check yes' setting during minimization
Neighbor list info ...
  update: every = 1 steps, delay = 0 steps, check = yes
  max neighbors/atom: 2000, page size: 100000
  master list distance cutoff = 12
  ghost atom cutoff = 12
  binsize = 6, bins = 4 4 4
  2 neighbor lists, perpetual/occasional/extra = 2 0 0
  (1) pair reaxff, perpetual
      attributes: half, newton off, ghost
      pair build: half/bin/newtoff/ghost
      stencil: full/ghost/bin/3d
      bin: standard
  (2) fix qeq/reaxff, perpetual, copy from (1)
      attributes: half, newton off
      pair build: copy
      stencil: none
      bin: none
Per MPI rank memory allocation (min/avg/max) = 141 | 141 | 141 Mbytes
   Step          Temp          E_pair         E_mol          TotEng         Press     
         0   0             -92957.67       0             -92957.67       620923.33    
         1   0             -92957.67       0             -92957.67       620923.33    
Loop time of 0.335302 on 1 procs for 1 steps with 768 atoms

99.4% CPU use with 1 MPI tasks x no OpenMP threads

Minimization stats:
  Stopping criterion = linesearch alpha is zero
  Energy initial, next-to-last, final = 
     -92957.6699419559  -92957.6699419559   -92957.669941932
  Force two-norm initial, final = 4.0797861e-11 9.417422e-05
  Force max component initial, final = 3.0370151e-12 8.5271544e-06
  Final line search alpha, max atom move = 0.5 4.2635772e-06
  Iterations, force evaluations = 1 3

MPI task timing breakdown:
Section |  min time  |  avg time  |  max time  |%varavg| %total
---------------------------------------------------------------
Pair    | 0.30822    | 0.30822    | 0.30822    |   0.0 | 91.92
Neigh   | 0          | 0          | 0          |   0.0 |  0.00
Comm    | 9.9667e-05 | 9.9667e-05 | 9.9667e-05 |   0.0 |  0.03
Output  | 0          | 0          | 0          |   0.0 |  0.00
Modify  | 0.026443   | 0.026443   | 0.026443   |   0.0 |  7.89
Other   |            | 0.0005388  |            |       |  0.16

Nlocal:            768 ave         768 max         768 min
Histogram: 1 0 0 0 0 0 0 0 0 0
Nghost:           5785 ave        5785 max        5785 min
Histogram: 1 0 0 0 0 0 0 0 0 0
Neighs:         238242 ave      238242 max      238242 min
Histogram: 1 0 0 0 0 0 0 0 0 0

Total # of neighbors = 238242
Ave neighs/atom = 310.21094
Neighbor list builds = 0
Dangerous builds = 0

thermo          100
clear
#ReaxFF for CeO2

#Real units, see LAMMPS documentation
units real

#Periodic boundary
boundary p p p

#Specifies that atoms will have a charge
atom_style charge

#Reads data from file. Formatting of file alligns with examples from LAMMPS github repository
read_data data_1.08.CeO2
Reading data file ...
  orthogonal box = (0 0 0) to (5.904846 5.904846 5.904846)
  1 by 1 by 1 MPI processor grid
  reading atoms ...
  12 atoms
  read_data CPU = 0.000 seconds

# Access and print the value of xhi
variable xhi equal "xhi"
#print "xhi = ${xhi}"

# Calculate n*xhi where n is the number of unit cells per side of the supercell
variable n_times_xhi equal 4*${xhi}
variable n_times_xhi equal 4*5.904846
#print "4 * xhi = ${n_times_xhi}"

# Define dimensions of the supercell using 2*xhi
region supercell block 0.0 ${n_times_xhi} 0.0 ${n_times_xhi} 0.0 ${n_times_xhi} units box
region supercell block 0.0 23.619384 0.0 ${n_times_xhi} 0.0 ${n_times_xhi} units box
region supercell block 0.0 23.619384 0.0 23.619384 0.0 ${n_times_xhi} units box
region supercell block 0.0 23.619384 0.0 23.619384 0.0 23.619384 units box

# Define dimensions of the supercell
#region supercell block 0.0 10.9349 0.0 10.9349 0.0 10.9349 units box

# Create the supercell
replicate 4 4 4
Replication is creating a 4x4x4 = 64 times larger system...
  orthogonal box = (0 0 0) to (23.619384 23.619384 23.619384)
  1 by 1 by 1 MPI processor grid
  768 atoms
  replicate CPU = 0.000 seconds

#Null indicates that the default ReaxFF parameters will be used. checkqeq yes allows charge equilibration method to be used.
#Relevant default parameter: Cutoff distance is found in field.reax: !Upper Taper-radius
pair_style reaxff NULL checkqeq yes

pair_coeff * * field.reax O Ce

neighbor        2.0 bin
neigh_modify every 10 delay 0 check yes

#Only relevant for MD, not minimization
#fix             1 all nve

#Allows for charge equilibration
fix qeq all qeq/reaxff 1 0.0 10.0 1.0e-6 reaxff

dump mydmp all atom 1 dump.lammpstrj

# Perform minimization
min_style       cg
minimize        1.0e-4 1.0e-6 100 1000
Switching to 'neigh_modify every 1 delay 0 check yes' setting during minimization
Neighbor list info ...
  update: every = 1 steps, delay = 0 steps, check = yes
  max neighbors/atom: 2000, page size: 100000
  master list distance cutoff = 12
  ghost atom cutoff = 12
  binsize = 6, bins = 4 4 4
  2 neighbor lists, perpetual/occasional/extra = 2 0 0
  (1) pair reaxff, perpetual
      attributes: half, newton off, ghost
      pair build: half/bin/newtoff/ghost
      stencil: full/ghost/bin/3d
      bin: standard
  (2) fix qeq/reaxff, perpetual, copy from (1)
      attributes: half, newton off
      pair build: copy
      stencil: none
      bin: none
Per MPI rank memory allocation (min/avg/max) = 140.9 | 140.9 | 140.9 Mbytes
   Step          Temp          E_pair         E_mol          TotEng         Press     
         0   0             -95605.761      0             -95605.761      227249.38    
         1   0             -95605.761      0             -95605.761      227249.38    
Loop time of 0.253937 on 1 procs for 1 steps with 768 atoms

99.5% CPU use with 1 MPI tasks x no OpenMP threads

Minimization stats:
  Stopping criterion = energy tolerance
  Energy initial, next-to-last, final = 
     -95605.7611445719  -95605.7611445719  -95605.7611445667
  Force two-norm initial, final = 5.948753e-11 3.3838691e-05
  Force max component initial, final = 4.5670134e-12 2.2512171e-06
  Final line search alpha, max atom move = 1 2.2512171e-06
  Iterations, force evaluations = 1 2

MPI task timing breakdown:
Section |  min time  |  avg time  |  max time  |%varavg| %total
---------------------------------------------------------------
Pair    | 0.23202    | 0.23202    | 0.23202    |   0.0 | 91.37
Neigh   | 0          | 0          | 0          |   0.0 |  0.00
Comm    | 7.4834e-05 | 7.4834e-05 | 7.4834e-05 |   0.0 |  0.03
Output  | 0          | 0          | 0          |   0.0 |  0.00
Modify  | 0.021239   | 0.021239   | 0.021239   |   0.0 |  8.36
Other   |            | 0.000601   |            |       |  0.24

Nlocal:            768 ave         768 max         768 min
Histogram: 1 0 0 0 0 0 0 0 0 0
Nghost:           5785 ave        5785 max        5785 min
Histogram: 1 0 0 0 0 0 0 0 0 0
Neighs:         228237 ave      228237 max      228237 min
Histogram: 1 0 0 0 0 0 0 0 0 0

Total # of neighbors = 228237
Ave neighs/atom = 297.18359
Neighbor list builds = 0
Dangerous builds = 0

thermo          100
clear
#ReaxFF for CeO2

#Real units, see LAMMPS documentation
units real

#Periodic boundary
boundary p p p

#Specifies that atoms will have a charge
atom_style charge

#Reads data from file. Formatting of file alligns with examples from LAMMPS github repository
read_data data_1.09.CeO2
Reading data file ...
  orthogonal box = (0 0 0) to (5.9595205 5.9595205 5.9595205)
  1 by 1 by 1 MPI processor grid
  reading atoms ...
  12 atoms
  read_data CPU = 0.000 seconds

# Access and print the value of xhi
variable xhi equal "xhi"
#print "xhi = ${xhi}"

# Calculate n*xhi where n is the number of unit cells per side of the supercell
variable n_times_xhi equal 4*${xhi}
variable n_times_xhi equal 4*5.9595205
#print "4 * xhi = ${n_times_xhi}"

# Define dimensions of the supercell using 2*xhi
region supercell block 0.0 ${n_times_xhi} 0.0 ${n_times_xhi} 0.0 ${n_times_xhi} units box
region supercell block 0.0 23.838082 0.0 ${n_times_xhi} 0.0 ${n_times_xhi} units box
region supercell block 0.0 23.838082 0.0 23.838082 0.0 ${n_times_xhi} units box
region supercell block 0.0 23.838082 0.0 23.838082 0.0 23.838082 units box

# Define dimensions of the supercell
#region supercell block 0.0 10.9349 0.0 10.9349 0.0 10.9349 units box

# Create the supercell
replicate 4 4 4
Replication is creating a 4x4x4 = 64 times larger system...
  orthogonal box = (0 0 0) to (23.838082 23.838082 23.838082)
  1 by 1 by 1 MPI processor grid
  768 atoms
  replicate CPU = 0.000 seconds

#Null indicates that the default ReaxFF parameters will be used. checkqeq yes allows charge equilibration method to be used.
#Relevant default parameter: Cutoff distance is found in field.reax: !Upper Taper-radius
pair_style reaxff NULL checkqeq yes

pair_coeff * * field.reax O Ce

neighbor        2.0 bin
neigh_modify every 10 delay 0 check yes

#Only relevant for MD, not minimization
#fix             1 all nve

#Allows for charge equilibration
fix qeq all qeq/reaxff 1 0.0 10.0 1.0e-6 reaxff

dump mydmp all atom 1 dump.lammpstrj

# Perform minimization
min_style       cg
minimize        1.0e-4 1.0e-6 100 1000
Switching to 'neigh_modify every 1 delay 0 check yes' setting during minimization
Neighbor list info ...
  update: every = 1 steps, delay = 0 steps, check = yes
  max neighbors/atom: 2000, page size: 100000
  master list distance cutoff = 12
  ghost atom cutoff = 12
  binsize = 6, bins = 4 4 4
  2 neighbor lists, perpetual/occasional/extra = 2 0 0
  (1) pair reaxff, perpetual
      attributes: half, newton off, ghost
      pair build: half/bin/newtoff/ghost
      stencil: full/ghost/bin/3d
      bin: standard
  (2) fix qeq/reaxff, perpetual, copy from (1)
      attributes: half, newton off
      pair build: copy
      stencil: none
      bin: none
Per MPI rank memory allocation (min/avg/max) = 140.9 | 140.9 | 140.9 Mbytes
   Step          Temp          E_pair         E_mol          TotEng         Press     
         0   0             -96438.397      0             -96438.397      132059.67    
         1   0             -96438.397      0             -96438.397      132059.67    
Loop time of 0.252796 on 1 procs for 1 steps with 768 atoms

99.8% CPU use with 1 MPI tasks x no OpenMP threads

Minimization stats:
  Stopping criterion = energy tolerance
  Energy initial, next-to-last, final = 
     -96438.3971300839  -96438.3971300839  -96438.3971300795
  Force two-norm initial, final = 3.4727766e-11 9.5597691e-06
  Force max component initial, final = 3.5536019e-12 1.2329629e-06
  Final line search alpha, max atom move = 1 1.2329629e-06
  Iterations, force evaluations = 1 2

MPI task timing breakdown:
Section |  min time  |  avg time  |  max time  |%varavg| %total
---------------------------------------------------------------
Pair    | 0.23102    | 0.23102    | 0.23102    |   0.0 | 91.39
Neigh   | 0          | 0          | 0          |   0.0 |  0.00
Comm    | 7.375e-05  | 7.375e-05  | 7.375e-05  |   0.0 |  0.03
Output  | 0          | 0          | 0          |   0.0 |  0.00
Modify  | 0.021051   | 0.021051   | 0.021051   |   0.0 |  8.33
Other   |            | 0.0006518  |            |       |  0.26

Nlocal:            768 ave         768 max         768 min
Histogram: 1 0 0 0 0 0 0 0 0 0
Nghost:           5785 ave        5785 max        5785 min
Histogram: 1 0 0 0 0 0 0 0 0 0
Neighs:         228237 ave      228237 max      228237 min
Histogram: 1 0 0 0 0 0 0 0 0 0

Total # of neighbors = 228237
Ave neighs/atom = 297.18359
Neighbor list builds = 0
Dangerous builds = 0

thermo          100
clear
#ReaxFF for CeO2

#Real units, see LAMMPS documentation
units real

#Periodic boundary
boundary p p p

#Specifies that atoms will have a charge
atom_style charge

#Reads data from file. Formatting of file alligns with examples from LAMMPS github repository
read_data data_1.10.CeO2
Reading data file ...
  orthogonal box = (0 0 0) to (6.014195 6.014195 6.014195)
  1 by 1 by 1 MPI processor grid
  reading atoms ...
  12 atoms
  read_data CPU = 0.000 seconds

# Access and print the value of xhi
variable xhi equal "xhi"
#print "xhi = ${xhi}"

# Calculate n*xhi where n is the number of unit cells per side of the supercell
variable n_times_xhi equal 4*${xhi}
variable n_times_xhi equal 4*6.014195
#print "4 * xhi = ${n_times_xhi}"

# Define dimensions of the supercell using 2*xhi
region supercell block 0.0 ${n_times_xhi} 0.0 ${n_times_xhi} 0.0 ${n_times_xhi} units box
region supercell block 0.0 24.05678 0.0 ${n_times_xhi} 0.0 ${n_times_xhi} units box
region supercell block 0.0 24.05678 0.0 24.05678 0.0 ${n_times_xhi} units box
region supercell block 0.0 24.05678 0.0 24.05678 0.0 24.05678 units box

# Define dimensions of the supercell
#region supercell block 0.0 10.9349 0.0 10.9349 0.0 10.9349 units box

# Create the supercell
replicate 4 4 4
Replication is creating a 4x4x4 = 64 times larger system...
  orthogonal box = (0 0 0) to (24.05678 24.05678 24.05678)
  1 by 1 by 1 MPI processor grid
  768 atoms
  replicate CPU = 0.000 seconds

#Null indicates that the default ReaxFF parameters will be used. checkqeq yes allows charge equilibration method to be used.
#Relevant default parameter: Cutoff distance is found in field.reax: !Upper Taper-radius
pair_style reaxff NULL checkqeq yes

pair_coeff * * field.reax O Ce

neighbor        2.0 bin
neigh_modify every 10 delay 0 check yes

#Only relevant for MD, not minimization
#fix             1 all nve

#Allows for charge equilibration
fix qeq all qeq/reaxff 1 0.0 10.0 1.0e-6 reaxff

dump mydmp all atom 1 dump.lammpstrj

# Perform minimization
min_style       cg
minimize        1.0e-4 1.0e-6 100 1000
Switching to 'neigh_modify every 1 delay 0 check yes' setting during minimization
Neighbor list info ...
  update: every = 1 steps, delay = 0 steps, check = yes
  max neighbors/atom: 2000, page size: 100000
  master list distance cutoff = 12
  ghost atom cutoff = 12
  binsize = 6, bins = 5 5 5
  2 neighbor lists, perpetual/occasional/extra = 2 0 0
  (1) pair reaxff, perpetual
      attributes: half, newton off, ghost
      pair build: half/bin/newtoff/ghost
      stencil: full/ghost/bin/3d
      bin: standard
  (2) fix qeq/reaxff, perpetual, copy from (1)
      attributes: half, newton off
      pair build: copy
      stencil: none
      bin: none
Per MPI rank memory allocation (min/avg/max) = 126.2 | 126.2 | 126.2 Mbytes
   Step          Temp          E_pair         E_mol          TotEng         Press     
         0   0             -97048.634      0             -97048.634      91339.004    
         1   0             -97048.634      0             -97048.634      91339.004    
Loop time of 0.161024 on 1 procs for 1 steps with 768 atoms

95.5% CPU use with 1 MPI tasks x no OpenMP threads

Minimization stats:
  Stopping criterion = energy tolerance
  Energy initial, next-to-last, final = 
      -97048.634246921   -97048.634246921  -97048.6342469574
  Force two-norm initial, final = 4.2974824e-11 1.0281579e-06
  Force max component initial, final = 3.7370107e-12 8.9108347e-08
  Final line search alpha, max atom move = 1 8.9108347e-08
  Iterations, force evaluations = 1 1

MPI task timing breakdown:
Section |  min time  |  avg time  |  max time  |%varavg| %total
---------------------------------------------------------------
Pair    | 0.14775    | 0.14775    | 0.14775    |   0.0 | 91.76
Neigh   | 0          | 0          | 0          |   0.0 |  0.00
Comm    | 4.4252e-05 | 4.4252e-05 | 4.4252e-05 |   0.0 |  0.03
Output  | 0          | 0          | 0          |   0.0 |  0.00
Modify  | 0.012579   | 0.012579   | 0.012579   |   0.0 |  7.81
Other   |            | 0.000647   |            |       |  0.40

Nlocal:            768 ave         768 max         768 min
Histogram: 1 0 0 0 0 0 0 0 0 0
Nghost:           5015 ave        5015 max        5015 min
Histogram: 1 0 0 0 0 0 0 0 0 0
Neighs:         224781 ave      224781 max      224781 min
Histogram: 1 0 0 0 0 0 0 0 0 0

Total # of neighbors = 224781
Ave neighs/atom = 292.68359
Neighbor list builds = 0
Dangerous builds = 0

thermo          100
clear
#ReaxFF for CeO2

#Real units, see LAMMPS documentation
units real

#Periodic boundary
boundary p p p

#Specifies that atoms will have a charge
atom_style charge

#Reads data from file. Formatting of file alligns with examples from LAMMPS github repository
read_data data_1.11.CeO2
Reading data file ...
  orthogonal box = (0 0 0) to (6.0688695 6.0688695 6.0688695)
  1 by 1 by 1 MPI processor grid
  reading atoms ...
  12 atoms
  read_data CPU = 0.000 seconds

# Access and print the value of xhi
variable xhi equal "xhi"
#print "xhi = ${xhi}"

# Calculate n*xhi where n is the number of unit cells per side of the supercell
variable n_times_xhi equal 4*${xhi}
variable n_times_xhi equal 4*6.0688695
#print "4 * xhi = ${n_times_xhi}"

# Define dimensions of the supercell using 2*xhi
region supercell block 0.0 ${n_times_xhi} 0.0 ${n_times_xhi} 0.0 ${n_times_xhi} units box
region supercell block 0.0 24.275478 0.0 ${n_times_xhi} 0.0 ${n_times_xhi} units box
region supercell block 0.0 24.275478 0.0 24.275478 0.0 ${n_times_xhi} units box
region supercell block 0.0 24.275478 0.0 24.275478 0.0 24.275478 units box

# Define dimensions of the supercell
#region supercell block 0.0 10.9349 0.0 10.9349 0.0 10.9349 units box

# Create the supercell
replicate 4 4 4
Replication is creating a 4x4x4 = 64 times larger system...
  orthogonal box = (0 0 0) to (24.275478 24.275478 24.275478)
  1 by 1 by 1 MPI processor grid
  768 atoms
  replicate CPU = 0.000 seconds

#Null indicates that the default ReaxFF parameters will be used. checkqeq yes allows charge equilibration method to be used.
#Relevant default parameter: Cutoff distance is found in field.reax: !Upper Taper-radius
pair_style reaxff NULL checkqeq yes

pair_coeff * * field.reax O Ce

neighbor        2.0 bin
neigh_modify every 10 delay 0 check yes

#Only relevant for MD, not minimization
#fix             1 all nve

#Allows for charge equilibration
fix qeq all qeq/reaxff 1 0.0 10.0 1.0e-6 reaxff

dump mydmp all atom 1 dump.lammpstrj

# Perform minimization
min_style       cg
minimize        1.0e-4 1.0e-6 100 1000
Switching to 'neigh_modify every 1 delay 0 check yes' setting during minimization
Neighbor list info ...
  update: every = 1 steps, delay = 0 steps, check = yes
  max neighbors/atom: 2000, page size: 100000
  master list distance cutoff = 12
  ghost atom cutoff = 12
  binsize = 6, bins = 5 5 5
  2 neighbor lists, perpetual/occasional/extra = 2 0 0
  (1) pair reaxff, perpetual
[...]
      stencil: full/ghost/bin/3d
      bin: standard
  (2) fix qeq/reaxff, perpetual, copy from (1)
      attributes: half, newton off
      pair build: copy
      stencil: none
      bin: none
Per MPI rank memory allocation (min/avg/max) = 123.9 | 123.9 | 123.9 Mbytes
   Step          Temp          E_pair         E_mol          TotEng         Press     
         0   0             -98478.125      0             -98478.125     -9222.2143    
         1   0             -98478.125      0             -98478.125     -9222.2143    
Loop time of 0.235331 on 1 procs for 1 steps with 768 atoms

95.1% CPU use with 1 MPI tasks x no OpenMP threads

Minimization stats:
  Stopping criterion = linesearch alpha is zero
  Energy initial, next-to-last, final = 
     -98478.1252392497  -98478.1252392497  -98478.1252392448
  Force two-norm initial, final = 5.0280775e-11 3.0585618e-06
  Force max component initial, final = 6.0396133e-12 2.4444229e-07
  Final line search alpha, max atom move = 0.5 1.2222115e-07
  Iterations, force evaluations = 1 2

MPI task timing breakdown:
Section |  min time  |  avg time  |  max time  |%varavg| %total
---------------------------------------------------------------
Pair    | 0.21836    | 0.21836    | 0.21836    |   0.0 | 92.79
Neigh   | 0          | 0          | 0          |   0.0 |  0.00
Comm    | 6.9375e-05 | 6.9375e-05 | 6.9375e-05 |   0.0 |  0.03
Output  | 0          | 0          | 0          |   0.0 |  0.00
Modify  | 0.016291   | 0.016291   | 0.016291   |   0.0 |  6.92
Other   |            | 0.0006152  |            |       |  0.26

Nlocal:            768 ave         768 max         768 min
Histogram: 1 0 0 0 0 0 0 0 0 0
Nghost:           5015 ave        5015 max        5015 min
Histogram: 1 0 0 0 0 0 0 0 0 0
Neighs:         166236 ave      166236 max      166236 min
Histogram: 1 0 0 0 0 0 0 0 0 0

Total # of neighbors = 166236
Ave neighs/atom = 216.45312
Neighbor list builds = 0
Dangerous builds = 0

thermo          100
clear
#ReaxFF for CeO2

#Real units, see LAMMPS documentation
units real

#Periodic boundary
boundary p p p

#Specifies that atoms will have a charge
atom_style charge

#Reads data from file. Formatting of file alligns with examples from LAMMPS github repository
read_data data_1.22.CeO2
Reading data file ...
  orthogonal box = (0 0 0) to (6.670289 6.670289 6.670289)
  1 by 1 by 1 MPI processor grid
  reading atoms ...
  12 atoms
  read_data CPU = 0.000 seconds

# Access and print the value of xhi
variable xhi equal "xhi"
#print "xhi = ${xhi}"

# Calculate n*xhi where n is the number of unit cells per side of the supercell
variable n_times_xhi equal 4*${xhi}
variable n_times_xhi equal 4*6.670289
#print "4 * xhi = ${n_times_xhi}"

# Define dimensions of the supercell using 2*xhi
region supercell block 0.0 ${n_times_xhi} 0.0 ${n_times_xhi} 0.0 ${n_times_xhi} units box
region supercell block 0.0 26.681156 0.0 ${n_times_xhi} 0.0 ${n_times_xhi} units box
region supercell block 0.0 26.681156 0.0 26.681156 0.0 ${n_times_xhi} units box
region supercell block 0.0 26.681156 0.0 26.681156 0.0 26.681156 units box

# Define dimensions of the supercell
#region supercell block 0.0 10.9349 0.0 10.9349 0.0 10.9349 units box

# Create the supercell
replicate 4 4 4
Replication is creating a 4x4x4 = 64 times larger system...
  orthogonal box = (0 0 0) to (26.681156 26.681156 26.681156)
  1 by 1 by 1 MPI processor grid
  768 atoms
  replicate CPU = 0.000 seconds

#Null indicates that the default ReaxFF parameters will be used. checkqeq yes allows charge equilibration method to be used.
#Relevant default parameter: Cutoff distance is found in field.reax: !Upper Taper-radius
pair_style reaxff NULL checkqeq yes

pair_coeff * * field.reax O Ce

neighbor        2.0 bin
neigh_modify every 10 delay 0 check yes

#Only relevant for MD, not minimization
#fix             1 all nve

#Allows for charge equilibration
fix qeq all qeq/reaxff 1 0.0 10.0 1.0e-6 reaxff

dump mydmp all atom 1 dump.lammpstrj

# Perform minimization
min_style       cg
minimize        1.0e-4 1.0e-6 100 1000
Switching to 'neigh_modify every 1 delay 0 check yes' setting during minimization
Neighbor list info ...
  update: every = 1 steps, delay = 0 steps, check = yes
  max neighbors/atom: 2000, page size: 100000
  master list distance cutoff = 12
  ghost atom cutoff = 12
  binsize = 6, bins = 5 5 5
  2 neighbor lists, perpetual/occasional/extra = 2 0 0
  (1) pair reaxff, perpetual
      attributes: half, newton off, ghost
      pair build: half/bin/newtoff/ghost
      stencil: full/ghost/bin/3d
      bin: standard
  (2) fix qeq/reaxff, perpetual, copy from (1)
      attributes: half, newton off
      pair build: copy
      stencil: none
      bin: none
Per MPI rank memory allocation (min/avg/max) = 123.7 | 123.7 | 123.7 Mbytes
   Step          Temp          E_pair         E_mol          TotEng         Press     
         0   0             -98340.458      0             -98340.458     -32186.157    
         1   0             -98340.458      0             -98340.458     -32186.157    
Loop time of 0.206311 on 1 procs for 1 steps with 768 atoms

96.4% CPU use with 1 MPI tasks x no OpenMP threads

Minimization stats:
  Stopping criterion = energy tolerance
  Energy initial, next-to-last, final = 
     -98340.4577408256  -98340.4577408256    -98340.45774084
  Force two-norm initial, final = 6.168261e-11 2.2490552e-06
  Force max component initial, final = 5.5648819e-12 2.3614054e-07
  Final line search alpha, max atom move = 1 2.3614054e-07
  Iterations, force evaluations = 1 2

MPI task timing breakdown:
Section |  min time  |  avg time  |  max time  |%varavg| %total
---------------------------------------------------------------
Pair    | 0.19291    | 0.19291    | 0.19291    |   0.0 | 93.51
Neigh   | 0          | 0          | 0          |   0.0 |  0.00
Comm    | 6.754e-05  | 6.754e-05  | 6.754e-05  |   0.0 |  0.03
Output  | 0          | 0          | 0          |   0.0 |  0.00
Modify  | 0.012597   | 0.012597   | 0.012597   |   0.0 |  6.11
Other   |            | 0.0007338  |            |       |  0.36

Nlocal:            768 ave         768 max         768 min
Histogram: 1 0 0 0 0 0 0 0 0 0
Nghost:           5015 ave        5015 max        5015 min
Histogram: 1 0 0 0 0 0 0 0 0 0
Neighs:         156828 ave      156828 max      156828 min
Histogram: 1 0 0 0 0 0 0 0 0 0

Total # of neighbors = 156828
Ave neighs/atom = 204.20312
Neighbor list builds = 0
Dangerous builds = 0

thermo          100
clear
#ReaxFF for CeO2

#Real units, see LAMMPS documentation
units real

#Periodic boundary
boundary p p p

#Specifies that atoms will have a charge
atom_style charge

#Reads data from file. Formatting of file alligns with examples from LAMMPS github repository
read_data data_1.23.CeO2
Reading data file ...
  orthogonal box = (0 0 0) to (6.7249635 6.7249635 6.7249635)
  1 by 1 by 1 MPI processor grid
  reading atoms ...
  12 atoms
  read_data CPU = 0.000 seconds

# Access and print the value of xhi
variable xhi equal "xhi"
#print "xhi = ${xhi}"

# Calculate n*xhi where n is the number of unit cells per side of the supercell
variable n_times_xhi equal 4*${xhi}
variable n_times_xhi equal 4*6.7249635
#print "4 * xhi = ${n_times_xhi}"

# Define dimensions of the supercell using 2*xhi
region supercell block 0.0 ${n_times_xhi} 0.0 ${n_times_xhi} 0.0 ${n_times_xhi} units box
region supercell block 0.0 26.899854 0.0 ${n_times_xhi} 0.0 ${n_times_xhi} units box
region supercell block 0.0 26.899854 0.0 26.899854 0.0 ${n_times_xhi} units box
region supercell block 0.0 26.899854 0.0 26.899854 0.0 26.899854 units box

# Define dimensions of the supercell
#region supercell block 0.0 10.9349 0.0 10.9349 0.0 10.9349 units box

# Create the supercell
replicate 4 4 4
Replication is creating a 4x4x4 = 64 times larger system...
  orthogonal box = (0 0 0) to (26.899854 26.899854 26.899854)
  1 by 1 by 1 MPI processor grid
  768 atoms
  replicate CPU = 0.000 seconds

#Null indicates that the default ReaxFF parameters will be used. checkqeq yes allows charge equilibration method to be used.
#Relevant default parameter: Cutoff distance is found in field.reax: !Upper Taper-radius
pair_style reaxff NULL checkqeq yes

pair_coeff * * field.reax O Ce

neighbor        2.0 bin
neigh_modify every 10 delay 0 check yes

#Only relevant for MD, not minimization
#fix             1 all nve

#Allows for charge equilibration
fix qeq all qeq/reaxff 1 0.0 10.0 1.0e-6 reaxff

dump mydmp all atom 1 dump.lammpstrj

# Perform minimization
min_style       cg
minimize        1.0e-4 1.0e-6 100 1000
Switching to 'neigh_modify every 1 delay 0 check yes' setting during minimization
Neighbor list info ...
  update: every = 1 steps, delay = 0 steps, check = yes
  max neighbors/atom: 2000, page size: 100000
  master list distance cutoff = 12
  ghost atom cutoff = 12
  binsize = 6, bins = 5 5 5
  2 neighbor lists, perpetual/occasional/extra = 2 0 0
  (1) pair reaxff, perpetual
      attributes: half, newton off, ghost
      pair build: half/bin/newtoff/ghost
      stencil: full/ghost/bin/3d
      bin: standard
  (2) fix qeq/reaxff, perpetual, copy from (1)
      attributes: half, newton off
      pair build: copy
      stencil: none
      bin: none
Per MPI rank memory allocation (min/avg/max) = 122.7 | 122.7 | 122.7 Mbytes
   Step          Temp          E_pair         E_mol          TotEng         Press     
         0   0             -98025.131      0             -98025.131     -60075.13     
         1   0             -98025.131      0             -98025.131     -60075.13     
Loop time of 0.202114 on 1 procs for 1 steps with 768 atoms

96.7% CPU use with 1 MPI tasks x no OpenMP threads

Minimization stats:
  Stopping criterion = energy tolerance
  Energy initial, next-to-last, final = 
     -98025.1309344952  -98025.1309344952  -98025.1309344934
  Force two-norm initial, final = 1.7832247e-11 5.861516e-07
  Force max component initial, final = 2.6152414e-12 6.720751e-08
  Final line search alpha, max atom move = 1 6.720751e-08
  Iterations, force evaluations = 1 2

MPI task timing breakdown:
Section |  min time  |  avg time  |  max time  |%varavg| %total
---------------------------------------------------------------
Pair    | 0.18934    | 0.18934    | 0.18934    |   0.0 | 93.68
Neigh   | 0          | 0          | 0          |   0.0 |  0.00
Comm    | 6.7333e-05 | 6.7333e-05 | 6.7333e-05 |   0.0 |  0.03
Output  | 0          | 0          | 0          |   0.0 |  0.00
Modify  | 0.012083   | 0.012083   | 0.012083   |   0.0 |  5.98
Other   |            | 0.000621   |            |       |  0.31

Nlocal:            768 ave         768 max         768 min
Histogram: 1 0 0 0 0 0 0 0 0 0
Nghost:           5015 ave        5015 max        5015 min
Histogram: 1 0 0 0 0 0 0 0 0 0
Neighs:         138012 ave      138012 max      138012 min
Histogram: 1 0 0 0 0 0 0 0 0 0

Total # of neighbors = 138012
Ave neighs/atom = 179.70312
Neighbor list builds = 0
Dangerous builds = 0

thermo          100
clear
#ReaxFF for CeO2

#Real units, see LAMMPS documentation
units real

#Periodic boundary
boundary p p p

#Specifies that atoms will have a charge
atom_style charge

#Reads data from file. Formatting of file alligns with examples from LAMMPS github repository
read_data data_1.24.CeO2
Reading data file ...
  orthogonal box = (0 0 0) to (6.779638 6.779638 6.779638)
  1 by 1 by 1 MPI processor grid
  reading atoms ...
  12 atoms
  read_data CPU = 0.000 seconds

# Access and print the value of xhi
variable xhi equal "xhi"
#print "xhi = ${xhi}"

# Calculate n*xhi where n is the number of unit cells per side of the supercell
variable n_times_xhi equal 4*${xhi}
variable n_times_xhi equal 4*6.779638
#print "4 * xhi = ${n_times_xhi}"

# Define dimensions of the supercell using 2*xhi
region supercell block 0.0 ${n_times_xhi} 0.0 ${n_times_xhi} 0.0 ${n_times_xhi} units box
region supercell block 0.0 27.118552 0.0 ${n_times_xhi} 0.0 ${n_times_xhi} units box
region supercell block 0.0 27.118552 0.0 27.118552 0.0 ${n_times_xhi} units box
region supercell block 0.0 27.118552 0.0 27.118552 0.0 27.118552 units box

# Define dimensions of the supercell
#region supercell block 0.0 10.9349 0.0 10.9349 0.0 10.9349 units box

# Create the supercell
replicate 4 4 4
Replication is creating a 4x4x4 = 64 times larger system...
  orthogonal box = (0 0 0) to (27.118552 27.118552 27.118552)
  1 by 1 by 1 MPI processor grid
  768 atoms
  replicate CPU = 0.000 seconds

#Null indicates that the default ReaxFF parameters will be used. checkqeq yes allows charge equilibration method to be used.
#Relevant default parameter: Cutoff distance is found in field.reax: !Upper Taper-radius
pair_style reaxff NULL checkqeq yes

pair_coeff * * field.reax O Ce

neighbor        2.0 bin
neigh_modify every 10 delay 0 check yes

#Only relevant for MD, not minimization
#fix             1 all nve

#Allows for charge equilibration
fix qeq all qeq/reaxff 1 0.0 10.0 1.0e-6 reaxff

dump mydmp all atom 1 dump.lammpstrj

# Perform minimization
min_style       cg
minimize        1.0e-4 1.0e-6 100 1000
Switching to 'neigh_modify every 1 delay 0 check yes' setting during minimization
Neighbor list info ...
  update: every = 1 steps, delay = 0 steps, check = yes
  max neighbors/atom: 2000, page size: 100000
  master list distance cutoff = 12
  ghost atom cutoff = 12
  binsize = 6, bins = 5 5 5
  2 neighbor lists, perpetual/occasional/extra = 2 0 0
  (1) pair reaxff, perpetual
      attributes: half, newton off, ghost
      pair build: half/bin/newtoff/ghost
      stencil: full/ghost/bin/3d
      bin: standard
  (2) fix qeq/reaxff, perpetual, copy from (1)
      attributes: half, newton off
      pair build: copy
      stencil: none
      bin: none
Per MPI rank memory allocation (min/avg/max) = 122.7 | 122.7 | 122.7 Mbytes
   Step          Temp          E_pair         E_mol          TotEng         Press     
         0   0             -97506.885      0             -97506.885     -87463.197    
         1   0             -97506.885      0             -97506.885     -87463.197    
Loop time of 0.19443 on 1 procs for 1 steps with 768 atoms

96.2% CPU use with 1 MPI tasks x no OpenMP threads

Minimization stats:
  Stopping criterion = energy tolerance
  Energy initial, next-to-last, final = 
     -97506.8854007564  -97506.8854007564  -97506.8854007699
  Force two-norm initial, final = 3.7466487e-11 1.3545845e-06
  Force max component initial, final = 4.2916781e-12 1.3499936e-07
  Final line search alpha, max atom move = 1 1.3499936e-07
  Iterations, force evaluations = 1 2

MPI task timing breakdown:
Section |  min time  |  avg time  |  max time  |%varavg| %total
---------------------------------------------------------------
Pair    | 0.1835     | 0.1835     | 0.1835     |   0.0 | 94.38
Neigh   | 0          | 0          | 0          |   0.0 |  0.00
Comm    | 6.5626e-05 | 6.5626e-05 | 6.5626e-05 |   0.0 |  0.03
Output  | 0          | 0          | 0          |   0.0 |  0.00
Modify  | 0.010226   | 0.010226   | 0.010226   |   0.0 |  5.26
Other   |            | 0.0006412  |            |       |  0.33

Nlocal:            768 ave         768 max         768 min
Histogram: 1 0 0 0 0 0 0 0 0 0
Nghost:           5015 ave        5015 max        5015 min
Histogram: 1 0 0 0 0 0 0 0 0 0
Neighs:         138012 ave      138012 max      138012 min
Histogram: 1 0 0 0 0 0 0 0 0 0

Total # of neighbors = 138012
Ave neighs/atom = 179.70312
Neighbor list builds = 0
Dangerous builds = 0

thermo          100
clear
#ReaxFF for CeO2

#Real units, see LAMMPS documentation
units real

#Periodic boundary
boundary p p p

#Specifies that atoms will have a charge
atom_style charge

#Reads data from file. Formatting of file alligns with examples from LAMMPS github repository
read_data data_1.25.CeO2
Reading data file ...
  orthogonal box = (0 0 0) to (6.8343125 6.8343125 6.8343125)
  1 by 1 by 1 MPI processor grid
  reading atoms ...
  12 atoms
  read_data CPU = 0.000 seconds

# Access and print the value of xhi
variable xhi equal "xhi"
#print "xhi = ${xhi}"

# Calculate n*xhi where n is the number of unit cells per side of the supercell
variable n_times_xhi equal 4*${xhi}
variable n_times_xhi equal 4*6.8343125
#print "4 * xhi = ${n_times_xhi}"

# Define dimensions of the supercell using 2*xhi
region supercell block 0.0 ${n_times_xhi} 0.0 ${n_times_xhi} 0.0 ${n_times_xhi} units box
region supercell block 0.0 27.33725 0.0 ${n_times_xhi} 0.0 ${n_times_xhi} units box
region supercell block 0.0 27.33725 0.0 27.33725 0.0 ${n_times_xhi} units box
region supercell block 0.0 27.33725 0.0 27.33725 0.0 27.33725 units box

# Define dimensions of the supercell
#region supercell block 0.0 10.9349 0.0 10.9349 0.0 10.9349 units box

# Create the supercell
replicate 4 4 4
Replication is creating a 4x4x4 = 64 times larger system...
  orthogonal box = (0 0 0) to (27.33725 27.33725 27.33725)
  1 by 1 by 1 MPI processor grid
  768 atoms
  replicate CPU = 0.000 seconds

#Null indicates that the default ReaxFF parameters will be used. checkqeq yes allows charge equilibration method to be used.
#Relevant default parameter: Cutoff distance is found in field.reax: !Upper Taper-radius
pair_style reaxff NULL checkqeq yes

pair_coeff * * field.reax O Ce

neighbor        2.0 bin
neigh_modify every 10 delay 0 check yes

#Only relevant for MD, not minimization
#fix             1 all nve

#Allows for charge equilibration
fix qeq all qeq/reaxff 1 0.0 10.0 1.0e-6 reaxff

dump mydmp all atom 1 dump.lammpstrj

# Perform minimization
min_style       cg
minimize        1.0e-4 1.0e-6 100 1000
Switching to 'neigh_modify every 1 delay 0 check yes' setting during minimization
Neighbor list info ...
  update: every = 1 steps, delay = 0 steps, check = yes
  max neighbors/atom: 2000, page size: 100000
  master list distance cutoff = 12
  ghost atom cutoff = 12
  binsize = 6, bins = 5 5 5
  2 neighbor lists, perpetual/occasional/extra = 2 0 0
  (1) pair reaxff, perpetual
      attributes: half, newton off, ghost
      pair build: half/bin/newtoff/ghost
      stencil: full/ghost/bin/3d
      bin: standard
  (2) fix qeq/reaxff, perpetual, copy from (1)
      attributes: half, newton off
      pair build: copy
      stencil: none
      bin: none
Per MPI rank memory allocation (min/avg/max) = 122.7 | 122.7 | 122.7 Mbytes
   Step          Temp          E_pair         E_mol          TotEng         Press     
         0   0             -96808.843      0             -96808.843     -107381.03    
         1   0             -96808.843      0             -96808.843     -107381.03    
Loop time of 0.136862 on 1 procs for 1 steps with 768 atoms

94.3% CPU use with 1 MPI tasks x no OpenMP threads

Minimization stats:
  Stopping criterion = energy tolerance
  Energy initial, next-to-last, final = 
     -96808.8431715849  -96808.8431715849  -96808.8431716052
  Force two-norm initial, final = 7.1955026e-11 2.4073088e-07
  Force max component initial, final = 5.4072302e-12 2.3119945e-08
  Final line search alpha, max atom move = 1 2.3119945e-08
  Iterations, force evaluations = 1 1

MPI task timing breakdown:
Section |  min time  |  avg time  |  max time  |%varavg| %total
---------------------------------------------------------------
Pair    | 0.12844    | 0.12844    | 0.12844    |   0.0 | 93.85
Neigh   | 0          | 0          | 0          |   0.0 |  0.00
Comm    | 4.4748e-05 | 4.4748e-05 | 4.4748e-05 |   0.0 |  0.03
Output  | 0          | 0          | 0          |   0.0 |  0.00
Modify  | 0.0072683  | 0.0072683  | 0.0072683  |   0.0 |  5.31
Other   |            | 0.001106   |            |       |  0.81

Nlocal:            768 ave         768 max         768 min
Histogram: 1 0 0 0 0 0 0 0 0 0
Nghost:           5015 ave        5015 max        5015 min
Histogram: 1 0 0 0 0 0 0 0 0 0
Neighs:         138012 ave      138012 max      138012 min
Histogram: 1 0 0 0 0 0 0 0 0 0

Total # of neighbors = 138012
Ave neighs/atom = 179.70312
Neighbor list builds = 0
Dangerous builds = 0
