LAMMPS (2 Aug 2023 - Update 3)
OMP_NUM_THREADS environment is not set. Defaulting to 1 thread. (src/comm.cpp:98)
  using 1 OpenMP thread(s) per MPI task
Loaded 1 plugins from C:\Users\user\AppData\Local\LAMMPS 64-bit 2Aug2023\plugins
#ReaxFF for CeO2

#Real units, see LAMMPS documentation
units real

#Periodic boundary
boundary p p p

#Specifies that atoms will have a charge
atom_style charge

#Reads data from file. Formatting of file alligns with examples from LAMMPS github repository
read_data data.CeO2
Reading data file ...
  orthogonal box = (0 0 0) to (5.46745 5.46745 5.46745)
  1 by 1 by 1 MPI processor grid
  reading atoms ...
  12 atoms
  read_data CPU = 0.001 seconds

# Access and print the value of xhi
variable xhi equal "xhi"
#print "xhi = ${xhi}"

# Calculate n*xhi where n is the number of unit cells per side of the supercell
variable n_times_xhi equal 4*${xhi}
variable n_times_xhi equal 4*5.46745
#print "4 * xhi = ${n_times_xhi}"

# Define dimensions of the supercell using 2*xhi
region supercell block 0.0 ${n_times_xhi} 0.0 ${n_times_xhi} 0.0 ${n_times_xhi} units box
region supercell block 0.0 21.8698 0.0 ${n_times_xhi} 0.0 ${n_times_xhi} units box
region supercell block 0.0 21.8698 0.0 21.8698 0.0 ${n_times_xhi} units box
region supercell block 0.0 21.8698 0.0 21.8698 0.0 21.8698 units box

# Define dimensions of the supercell
#region supercell block 0.0 10.9349 0.0 10.9349 0.0 10.9349 units box

# Create the supercell
replicate 4 4 4
Replication is creating a 4x4x4 = 64 times larger system...
  orthogonal box = (0 0 0) to (21.8698 21.8698 21.8698)
  1 by 1 by 1 MPI processor grid
  768 atoms
  replicate CPU = 0.000 seconds

#Null indicates that the default ReaxFF parameters will be used. checkqeq yes allows charge equilibration method to be used.
#Relevant default parameter: Cutoff distance is found in field.reax: !Upper Taper-radius
pair_style reaxff NULL checkqeq yes

pair_coeff * * field.reax O Ce

neighbor        2.0 bin
neigh_modify every 10 delay 0 check yes

#Only relevant for MD, not minimization
#fix             1 all nve

#Allows for charge equilibration
fix qeq all qeq/reaxff 1 0.0 10.0 1.0e-6 reaxff

dump mydmp all atom 1 dump.lammpstrj

# Perform minimization
min_style       cg
minimize        1.0e-4 1.0e-6 100 1000

CITE-CITE-CITE-CITE-CITE-CITE-CITE-CITE-CITE-CITE-CITE-CITE-CITE

Your simulation uses code contributions which should be cited:

- pair reaxff command: doi:10.1016/j.parco.2011.08.005

@Article{Aktulga12,
 author = {H. M. Aktulga and J. C. Fogarty and S. A. Pandit and A. Y. Grama},
 title = {Parallel Reactive Molecular Dynamics: {N}umerical Methods and Algorithmic Techniques},
 journal = {Parallel Computing},
 year =    2012,
 volume =  38,
 number =  {4--5},
 pages =   {245--259}
}

- fix qeq/reaxff command: doi:10.1016/j.parco.2011.08.005

@Article{Aktulga12,
 author = {H. M. Aktulga and J. C. Fogarty and S. A. Pandit and A. Y. Grama},
 title = {Parallel Reactive Molecular Dynamics: {N}umerical Methods and Algorithmic Techniques},
 journal = {Parallel Computing},
 year =    2012,
 volume =  38,
 pages =   {245--259}
}

CITE-CITE-CITE-CITE-CITE-CITE-CITE-CITE-CITE-CITE-CITE-CITE-CITE

Switching to 'neigh_modify every 1 delay 0 check yes' setting during minimization
Neighbor list info ...
  update: every = 1 steps, delay = 0 steps, check = yes
  max neighbors/atom: 2000, page size: 100000
  master list distance cutoff = 12
  ghost atom cutoff = 12
  binsize = 6, bins = 4 4 4
  2 neighbor lists, perpetual/occasional/extra = 2 0 0
  (1) pair reaxff, perpetual
      attributes: half, newton off, ghost
      pair build: half/bin/newtoff/ghost
      stencil: full/ghost/bin/3d
      bin: standard
  (2) fix qeq/reaxff, perpetual, copy from (1)
      attributes: half, newton off
      pair build: copy
      stencil: none
      bin: none
Per MPI rank memory allocation (min/avg/max) = 173 | 173 | 173 Mbytes
   Step          Temp          E_pair         E_mol          TotEng         Press     
         0   0             -57815.101      0             -57815.101      1626827.5    
         1   0             -57815.101      0             -57815.101      1626827.5    
Loop time of 0.686533 on 1 procs for 1 steps with 768 atoms

93.3% CPU use with 1 MPI tasks x 1 OpenMP threads

Minimization stats:
  Stopping criterion = energy tolerance
  Energy initial, next-to-last, final = 
     -57815.1005337372  -57815.1005337372  -57815.1005337384
  Force two-norm initial, final = 3.8560302e-11 7.0451143e-05
  Force max component initial, final = 2.5164315e-12 4.8146769e-06
  Final line search alpha, max atom move = 1 4.8146769e-06
  Iterations, force evaluations = 1 2

MPI task timing breakdown:
Section |  min time  |  avg time  |  max time  |%varavg| %total
---------------------------------------------------------------
Pair    | 0.65267    | 0.65267    | 0.65267    |   0.0 | 95.07
Neigh   | 0          | 0          | 0          |   0.0 |  0.00
Comm    | 7.8e-05    | 7.8e-05    | 7.8e-05    |   0.0 |  0.01
Output  | 0          | 0          | 0          |   0.0 |  0.00
Modify  | 0.032598   | 0.032598   | 0.032598   |   0.0 |  4.75
Other   |            | 0.001187   |            |       |  0.17

Nlocal:            768 ave         768 max         768 min
Histogram: 1 0 0 0 0 0 0 0 0 0
Nghost:           5785 ave        5785 max        5785 min
Histogram: 1 0 0 0 0 0 0 0 0 0
Neighs:         314027 ave      314027 max      314027 min
Histogram: 1 0 0 0 0 0 0 0 0 0

Total # of neighbors = 314027
Ave neighs/atom = 408.88932
Neighbor list builds = 0
Dangerous builds = 0

thermo          100
clear
OMP_NUM_THREADS environment is not set. Defaulting to 1 thread. (src/comm.cpp:98)
  using 1 OpenMP thread(s) per MPI task
Loaded 1 plugins from C:\Users\user\AppData\Local\LAMMPS 64-bit 2Aug2023\plugins
#ReaxFF for CeO2

#Real units, see LAMMPS documentation
units real

#Periodic boundary
boundary p p p

#Specifies that atoms will have a charge
atom_style charge

#Reads data from file. Formatting of file alligns with examples from LAMMPS github repository
read_data data_0.95.CeO2
Reading data file ...
  orthogonal box = (0 0 0) to (5.1940775 5.1940775 5.1940775)
  1 by 1 by 1 MPI processor grid
  reading atoms ...
  12 atoms
  read_data CPU = 0.000 seconds

# Access and print the value of xhi
variable xhi equal "xhi"
#print "xhi = ${xhi}"

# Calculate n*xhi where n is the number of unit cells per side of the supercell
variable n_times_xhi equal 4*${xhi}
variable n_times_xhi equal 4*5.1940775
#print "4 * xhi = ${n_times_xhi}"

# Define dimensions of the supercell using 2*xhi
region supercell block 0.0 ${n_times_xhi} 0.0 ${n_times_xhi} 0.0 ${n_times_xhi} units box
region supercell block 0.0 20.77631 0.0 ${n_times_xhi} 0.0 ${n_times_xhi} units box
region supercell block 0.0 20.77631 0.0 20.77631 0.0 ${n_times_xhi} units box
region supercell block 0.0 20.77631 0.0 20.77631 0.0 20.77631 units box

# Define dimensions of the supercell
#region supercell block 0.0 10.9349 0.0 10.9349 0.0 10.9349 units box

# Create the supercell
replicate 4 4 4
Replication is creating a 4x4x4 = 64 times larger system...
  orthogonal box = (0 0 0) to (20.77631 20.77631 20.77631)
  1 by 1 by 1 MPI processor grid
  768 atoms
  replicate CPU = 0.000 seconds

#Null indicates that the default ReaxFF parameters will be used. checkqeq yes allows charge equilibration method to be used.
#Relevant default parameter: Cutoff distance is found in field.reax: !Upper Taper-radius
pair_style reaxff NULL checkqeq yes

pair_coeff * * field.reax O Ce

neighbor        2.0 bin
neigh_modify every 10 delay 0 check yes

#Only relevant for MD, not minimization
#fix             1 all nve

#Allows for charge equilibration
fix qeq all qeq/reaxff 1 0.0 10.0 1.0e-6 reaxff

dump mydmp all atom 1 dump.lammpstrj

# Perform minimization
min_style       cg
minimize        1.0e-4 1.0e-6 100 1000
Switching to 'neigh_modify every 1 delay 0 check yes' setting during minimization
Neighbor list info ...
  update: every = 1 steps, delay = 0 steps, check = yes
  max neighbors/atom: 2000, page size: 100000
  master list distance cutoff = 12
  ghost atom cutoff = 12
  binsize = 6, bins = 4 4 4
  2 neighbor lists, perpetual/occasional/extra = 2 0 0
  (1) pair reaxff, perpetual
      attributes: half, newton off, ghost
      pair build: half/bin/newtoff/ghost
      stencil: full/ghost/bin/3d
      bin: standard
  (2) fix qeq/reaxff, perpetual, copy from (1)
      attributes: half, newton off
      pair build: copy
      stencil: none
      bin: none
Per MPI rank memory allocation (min/avg/max) = 226.9 | 226.9 | 226.9 Mbytes
   Step          Temp          E_pair         E_mol          TotEng         Press     
         0   0             -6206.5381      0             -6206.5381      3394763.3    
         1   0             -6206.5381      0             -6206.5381      3394763.3    
Loop time of 0.849394 on 1 procs for 1 steps with 768 atoms

90.1% CPU use with 1 MPI tasks x 1 OpenMP threads

Minimization stats:
  Stopping criterion = energy tolerance
  Energy initial, next-to-last, final = 
     -6206.53812798856  -6206.53812798856  -6206.53812798774
  Force two-norm initial, final = 2.7549137e-10 0.0012034759
  Force max component initial, final = 3.009859e-11 0.00011105372
  Final line search alpha, max atom move = 1 0.00011105372
  Iterations, force evaluations = 1 2

MPI task timing breakdown:
Section |  min time  |  avg time  |  max time  |%varavg| %total
---------------------------------------------------------------
Pair    | 0.80502    | 0.80502    | 0.80502    |   0.0 | 94.78
Neigh   | 0          | 0          | 0          |   0.0 |  0.00
Comm    | 8.9e-05    | 8.9e-05    | 8.9e-05    |   0.0 |  0.01
Output  | 0          | 0          | 0          |   0.0 |  0.00
Modify  | 0.043269   | 0.043269   | 0.043269   |   0.0 |  5.09
Other   |            | 0.001014   |            |       |  0.12

Nlocal:            768 ave         768 max         768 min
Histogram: 1 0 0 0 0 0 0 0 0 0
Nghost:           7521 ave        7521 max        7521 min
Histogram: 1 0 0 0 0 0 0 0 0 0
Neighs:         380192 ave      380192 max      380192 min
Histogram: 1 0 0 0 0 0 0 0 0 0

Total # of neighbors = 380192
Ave neighs/atom = 495.04167
Neighbor list builds = 0
Dangerous builds = 0

thermo          100
clear
OMP_NUM_THREADS environment is not set. Defaulting to 1 thread. (src/comm.cpp:98)
  using 1 OpenMP thread(s) per MPI task
Loaded 1 plugins from C:\Users\user\AppData\Local\LAMMPS 64-bit 2Aug2023\plugins
#ReaxFF for CeO2

#Real units, see LAMMPS documentation
units real

#Periodic boundary
boundary p p p

#Specifies that atoms will have a charge
atom_style charge

#Reads data from file. Formatting of file alligns with examples from LAMMPS github repository
read_data data_0.96.CeO2
Reading data file ...
  orthogonal box = (0 0 0) to (5.248752 5.248752 5.248752)
  1 by 1 by 1 MPI processor grid
  reading atoms ...
  12 atoms
  read_data CPU = 0.000 seconds

# Access and print the value of xhi
variable xhi equal "xhi"
#print "xhi = ${xhi}"

# Calculate n*xhi where n is the number of unit cells per side of the supercell
variable n_times_xhi equal 4*${xhi}
variable n_times_xhi equal 4*5.248752
#print "4 * xhi = ${n_times_xhi}"

# Define dimensions of the supercell using 2*xhi
region supercell block 0.0 ${n_times_xhi} 0.0 ${n_times_xhi} 0.0 ${n_times_xhi} units box
region supercell block 0.0 20.995008 0.0 ${n_times_xhi} 0.0 ${n_times_xhi} units box
region supercell block 0.0 20.995008 0.0 20.995008 0.0 ${n_times_xhi} units box
region supercell block 0.0 20.995008 0.0 20.995008 0.0 20.995008 units box

# Define dimensions of the supercell
#region supercell block 0.0 10.9349 0.0 10.9349 0.0 10.9349 units box

# Create the supercell
replicate 4 4 4
Replication is creating a 4x4x4 = 64 times larger system...
  orthogonal box = (0 0 0) to (20.995008 20.995008 20.995008)
  1 by 1 by 1 MPI processor grid
  768 atoms
  replicate CPU = 0.000 seconds

#Null indicates that the default ReaxFF parameters will be used. checkqeq yes allows charge equilibration method to be used.
#Relevant default parameter: Cutoff distance is found in field.reax: !Upper Taper-radius
pair_style reaxff NULL checkqeq yes

pair_coeff * * field.reax O Ce

neighbor        2.0 bin
neigh_modify every 10 delay 0 check yes

#Only relevant for MD, not minimization
#fix             1 all nve

#Allows for charge equilibration
fix qeq all qeq/reaxff 1 0.0 10.0 1.0e-6 reaxff

dump mydmp all atom 1 dump.lammpstrj

# Perform minimization
min_style       cg
minimize        1.0e-4 1.0e-6 100 1000
Switching to 'neigh_modify every 1 delay 0 check yes' setting during minimization
Neighbor list info ...
  update: every = 1 steps, delay = 0 steps, check = yes
  max neighbors/atom: 2000, page size: 100000
  master list distance cutoff = 12
  ghost atom cutoff = 12
  binsize = 6, bins = 4 4 4
  2 neighbor lists, perpetual/occasional/extra = 2 0 0
  (1) pair reaxff, perpetual
      attributes: half, newton off, ghost
      pair build: half/bin/newtoff/ghost
      stencil: full/ghost/bin/3d
      bin: standard
  (2) fix qeq/reaxff, perpetual, copy from (1)
      attributes: half, newton off
      pair build: copy
      stencil: none
      bin: none
Per MPI rank memory allocation (min/avg/max) = 225.9 | 225.9 | 225.9 Mbytes
   Step          Temp          E_pair         E_mol          TotEng         Press     
         0   0             -19332.062      0             -19332.062      2912060.1    
         1   0             -19332.062      0             -19332.062      2912060.1    
Loop time of 0.800815 on 1 procs for 1 steps with 768 atoms

97.6% CPU use with 1 MPI tasks x 1 OpenMP threads

Minimization stats:
  Stopping criterion = energy tolerance
  Energy initial, next-to-last, final = 
      -19332.062273784   -19332.062273784  -19332.0622737888
  Force two-norm initial, final = 1.1128114e-10 0.00051498226
  Force max component initial, final = 1.1603163e-11 3.4502848e-05
  Final line search alpha, max atom move = 1 3.4502848e-05
  Iterations, force evaluations = 1 2

MPI task timing breakdown:
Section |  min time  |  avg time  |  max time  |%varavg| %total
---------------------------------------------------------------
Pair    | 0.76222    | 0.76222    | 0.76222    |   0.0 | 95.18
Neigh   | 0          | 0          | 0          |   0.0 |  0.00
Comm    | 9.8e-05    | 9.8e-05    | 9.8e-05    |   0.0 |  0.01
Output  | 0          | 0          | 0          |   0.0 |  0.00
Modify  | 0.037453   | 0.037453   | 0.037453   |   0.0 |  4.68
Other   |            | 0.001046   |            |       |  0.13

Nlocal:            768 ave         768 max         768 min
Histogram: 1 0 0 0 0 0 0 0 0 0
Nghost:           7521 ave        7521 max        7521 min
Histogram: 1 0 0 0 0 0 0 0 0 0
Neighs:         359648 ave      359648 max      359648 min
Histogram: 1 0 0 0 0 0 0 0 0 0

Total # of neighbors = 359648
Ave neighs/atom = 468.29167
Neighbor list builds = 0
Dangerous builds = 0

thermo          100
clear
OMP_NUM_THREADS environment is not set. Defaulting to 1 thread. (src/comm.cpp:98)
  using 1 OpenMP thread(s) per MPI task
Loaded 1 plugins from C:\Users\user\AppData\Local\LAMMPS 64-bit 2Aug2023\plugins
#ReaxFF for CeO2

#Real units, see LAMMPS documentation
units real

#Periodic boundary
boundary p p p

#Specifies that atoms will have a charge
atom_style charge

#Reads data from file. Formatting of file alligns with examples from LAMMPS github repository
read_data data_0.97.CeO2
Reading data file ...
  orthogonal box = (0 0 0) to (5.3034265 5.3034265 5.3034265)
  1 by 1 by 1 MPI processor grid
  reading atoms ...
  12 atoms
  read_data CPU = 0.000 seconds

# Access and print the value of xhi
variable xhi equal "xhi"
#print "xhi = ${xhi}"

# Calculate n*xhi where n is the number of unit cells per side of the supercell
variable n_times_xhi equal 4*${xhi}
variable n_times_xhi equal 4*5.3034265
#print "4 * xhi = ${n_times_xhi}"

# Define dimensions of the supercell using 2*xhi
region supercell block 0.0 ${n_times_xhi} 0.0 ${n_times_xhi} 0.0 ${n_times_xhi} units box
region supercell block 0.0 21.213706 0.0 ${n_times_xhi} 0.0 ${n_times_xhi} units box
region supercell block 0.0 21.213706 0.0 21.213706 0.0 ${n_times_xhi} units box
region supercell block 0.0 21.213706 0.0 21.213706 0.0 21.213706 units box

# Define dimensions of the supercell
#region supercell block 0.0 10.9349 0.0 10.9349 0.0 10.9349 units box

# Create the supercell
replicate 4 4 4
Replication is creating a 4x4x4 = 64 times larger system...
  orthogonal box = (0 0 0) to (21.213706 21.213706 21.213706)
  1 by 1 by 1 MPI processor grid
  768 atoms
  replicate CPU = 0.000 seconds

#Null indicates that the default ReaxFF parameters will be used. checkqeq yes allows charge equilibration method to be used.
#Relevant default parameter: Cutoff distance is found in field.reax: !Upper Taper-radius
pair_style reaxff NULL checkqeq yes

pair_coeff * * field.reax O Ce

neighbor        2.0 bin
neigh_modify every 10 delay 0 check yes

#Only relevant for MD, not minimization
#fix             1 all nve

#Allows for charge equilibration
fix qeq all qeq/reaxff 1 0.0 10.0 1.0e-6 reaxff

dump mydmp all atom 1 dump.lammpstrj

# Perform minimization
min_style       cg
minimize        1.0e-4 1.0e-6 100 1000
Switching to 'neigh_modify every 1 delay 0 check yes' setting during minimization
Neighbor list info ...
  update: every = 1 steps, delay = 0 steps, check = yes
  max neighbors/atom: 2000, page size: 100000
  master list distance cutoff = 12
  ghost atom cutoff = 12
  binsize = 6, bins = 4 4 4
  2 neighbor lists, perpetual/occasional/extra = 2 0 0
  (1) pair reaxff, perpetual
      attributes: half, newton off, ghost
      pair build: half/bin/newtoff/ghost
      stencil: full/ghost/bin/3d
      bin: standard
  (2) fix qeq/reaxff, perpetual, copy from (1)
      attributes: half, newton off
      pair build: copy
      stencil: none
      bin: none
Per MPI rank memory allocation (min/avg/max) = 224.7 | 224.7 | 224.7 Mbytes
   Step          Temp          E_pair         E_mol          TotEng         Press     
         0   0             -30843.457      0             -30843.457      2505231.1    
         1   0             -30843.457      0             -30843.457      2505231.1    
Loop time of 1.00998 on 1 procs for 1 steps with 768 atoms

91.3% CPU use with 1 MPI tasks x 1 OpenMP threads

Minimization stats:
  Stopping criterion = linesearch alpha is zero
  Energy initial, next-to-last, final = 
     -30843.4573855733  -30843.4573855733  -30843.4573855397
  Force two-norm initial, final = 3.5693076e-11 0.00042581874
  Force max component initial, final = 3.9981074e-12 3.5634731e-05
  Final line search alpha, max atom move = 0.5 1.7817366e-05
  Iterations, force evaluations = 1 3

MPI task timing breakdown:
Section |  min time  |  avg time  |  max time  |%varavg| %total
---------------------------------------------------------------
Pair    | 0.96037    | 0.96037    | 0.96037    |   0.0 | 95.09
Neigh   | 0          | 0          | 0          |   0.0 |  0.00
Comm    | 0.000118   | 0.000118   | 0.000118   |   0.0 |  0.01
Output  | 0          | 0          | 0          |   0.0 |  0.00
Modify  | 0.048535   | 0.048535   | 0.048535   |   0.0 |  4.81
Other   |            | 0.000959   |            |       |  0.09

Nlocal:            768 ave         768 max         768 min
Histogram: 1 0 0 0 0 0 0 0 0 0
Nghost:           7521 ave        7521 max        7521 min
Histogram: 1 0 0 0 0 0 0 0 0 0
Neighs:         329003 ave      329003 max      329003 min
Histogram: 1 0 0 0 0 0 0 0 0 0

Total # of neighbors = 329003
Ave neighs/atom = 428.38932
Neighbor list builds = 0
Dangerous builds = 0

thermo          100
clear
OMP_NUM_THREADS environment is not set. Defaulting to 1 thread. (src/comm.cpp:98)
  using 1 OpenMP thread(s) per MPI task
Loaded 1 plugins from C:\Users\user\AppData\Local\LAMMPS 64-bit 2Aug2023\plugins
#ReaxFF for CeO2

#Real units, see LAMMPS documentation
units real

#Periodic boundary
boundary p p p

#Specifies that atoms will have a charge
atom_style charge

#Reads data from file. Formatting of file alligns with examples from LAMMPS github repository
read_data data_0.98.CeO2
Reading data file ...
  orthogonal box = (0 0 0) to (5.358101 5.358101 5.358101)
  1 by 1 by 1 MPI processor grid
  reading atoms ...
  12 atoms
  read_data CPU = 0.001 seconds

# Access and print the value of xhi
variable xhi equal "xhi"
#print "xhi = ${xhi}"

# Calculate n*xhi where n is the number of unit cells per side of the supercell
variable n_times_xhi equal 4*${xhi}
variable n_times_xhi equal 4*5.358101
#print "4 * xhi = ${n_times_xhi}"

# Define dimensions of the supercell using 2*xhi
region supercell block 0.0 ${n_times_xhi} 0.0 ${n_times_xhi} 0.0 ${n_times_xhi} units box
region supercell block 0.0 21.432404 0.0 ${n_times_xhi} 0.0 ${n_times_xhi} units box
region supercell block 0.0 21.432404 0.0 21.432404 0.0 ${n_times_xhi} units box
region supercell block 0.0 21.432404 0.0 21.432404 0.0 21.432404 units box

# Define dimensions of the supercell
#region supercell block 0.0 10.9349 0.0 10.9349 0.0 10.9349 units box

# Create the supercell
replicate 4 4 4
Replication is creating a 4x4x4 = 64 times larger system...
  orthogonal box = (0 0 0) to (21.432404 21.432404 21.432404)
  1 by 1 by 1 MPI processor grid
  768 atoms
  replicate CPU = 0.000 seconds

#Null indicates that the default ReaxFF parameters will be used. checkqeq yes allows charge equilibration method to be used.
#Relevant default parameter: Cutoff distance is found in field.reax: !Upper Taper-radius
pair_style reaxff NULL checkqeq yes

pair_coeff * * field.reax O Ce

neighbor        2.0 bin
neigh_modify every 10 delay 0 check yes

#Only relevant for MD, not minimization
#fix             1 all nve

#Allows for charge equilibration
fix qeq all qeq/reaxff 1 0.0 10.0 1.0e-6 reaxff

dump mydmp all atom 1 dump.lammpstrj

# Perform minimization
min_style       cg
minimize        1.0e-4 1.0e-6 100 1000
Switching to 'neigh_modify every 1 delay 0 check yes' setting during minimization
Neighbor list info ...
  update: every = 1 steps, delay = 0 steps, check = yes
  max neighbors/atom: 2000, page size: 100000
  master list distance cutoff = 12
  ghost atom cutoff = 12
  binsize = 6, bins = 4 4 4
  2 neighbor lists, perpetual/occasional/extra = 2 0 0
  (1) pair reaxff, perpetual
      attributes: half, newton off, ghost
      pair build: half/bin/newtoff/ghost
      stencil: full/ghost/bin/3d
      bin: standard
  (2) fix qeq/reaxff, perpetual, copy from (1)
      attributes: half, newton off
      pair build: copy
      stencil: none
      bin: none
Per MPI rank memory allocation (min/avg/max) = 173.2 | 173.2 | 173.2 Mbytes
   Step          Temp          E_pair         E_mol          TotEng         Press     
         0   0             -40969.74       0             -40969.74       2162669.7    
         1   0             -40969.74       0             -40969.74       2162669.7    
Loop time of 0.683022 on 1 procs for 1 steps with 768 atoms

93.8% CPU use with 1 MPI tasks x 1 OpenMP threads

Minimization stats:
  Stopping criterion = energy tolerance
  Energy initial, next-to-last, final = 
      -40969.739983507   -40969.739983507  -40969.7399835252
  Force two-norm initial, final = 8.801245e-11 0.00029694421
  Force max component initial, final = 4.0263071e-12 1.5887708e-05
  Final line search alpha, max atom move = 1 1.5887708e-05
  Iterations, force evaluations = 1 2

MPI task timing breakdown:
Section |  min time  |  avg time  |  max time  |%varavg| %total
---------------------------------------------------------------
Pair    | 0.64937    | 0.64937    | 0.64937    |   0.0 | 95.07
Neigh   | 0          | 0          | 0          |   0.0 |  0.00
Comm    | 7e-05      | 7e-05      | 7e-05      |   0.0 |  0.01
Output  | 0          | 0          | 0          |   0.0 |  0.00
Modify  | 0.032583   | 0.032583   | 0.032583   |   0.0 |  4.77
Other   |            | 0.000999   |            |       |  0.15

Nlocal:            768 ave         768 max         768 min
Histogram: 1 0 0 0 0 0 0 0 0 0
Nghost:           5785 ave        5785 max        5785 min
Histogram: 1 0 0 0 0 0 0 0 0 0
Neighs:         329003 ave      329003 max      329003 min
Histogram: 1 0 0 0 0 0 0 0 0 0

Total # of neighbors = 329003
Ave neighs/atom = 428.38932
Neighbor list builds = 0
Dangerous builds = 0

thermo          100
clear
OMP_NUM_THREADS environment is not set. Defaulting to 1 thread. (src/comm.cpp:98)
  using 1 OpenMP thread(s) per MPI task
Loaded 1 plugins from C:\Users\user\AppData\Local\LAMMPS 64-bit 2Aug2023\plugins
#ReaxFF for CeO2

#Real units, see LAMMPS documentation
units real

#Periodic boundary
boundary p p p

#Specifies that atoms will have a charge
atom_style charge

#Reads data from file. Formatting of file alligns with examples from LAMMPS github repository
read_data data_0.99.CeO2
Reading data file ...
  orthogonal box = (0 0 0) to (5.4127755 5.4127755 5.4127755)
  1 by 1 by 1 MPI processor grid
  reading atoms ...
  12 atoms
  read_data CPU = 0.000 seconds

# Access and print the value of xhi
variable xhi equal "xhi"
#print "xhi = ${xhi}"

# Calculate n*xhi where n is the number of unit cells per side of the supercell
variable n_times_xhi equal 4*${xhi}
variable n_times_xhi equal 4*5.4127755
#print "4 * xhi = ${n_times_xhi}"

# Define dimensions of the supercell using 2*xhi
region supercell block 0.0 ${n_times_xhi} 0.0 ${n_times_xhi} 0.0 ${n_times_xhi} units box
region supercell block 0.0 21.651102 0.0 ${n_times_xhi} 0.0 ${n_times_xhi} units box
region supercell block 0.0 21.651102 0.0 21.651102 0.0 ${n_times_xhi} units box
region supercell block 0.0 21.651102 0.0 21.651102 0.0 21.651102 units box

# Define dimensions of the supercell
#region supercell block 0.0 10.9349 0.0 10.9349 0.0 10.9349 units box

# Create the supercell
replicate 4 4 4
Replication is creating a 4x4x4 = 64 times larger system...
  orthogonal box = (0 0 0) to (21.651102 21.651102 21.651102)
  1 by 1 by 1 MPI processor grid
  768 atoms
  replicate CPU = 0.000 seconds

#Null indicates that the default ReaxFF parameters will be used. checkqeq yes allows charge equilibration method to be used.
#Relevant default parameter: Cutoff distance is found in field.reax: !Upper Taper-radius
pair_style reaxff NULL checkqeq yes

pair_coeff * * field.reax O Ce

neighbor        2.0 bin
neigh_modify every 10 delay 0 check yes

#Only relevant for MD, not minimization
#fix             1 all nve

#Allows for charge equilibration
fix qeq all qeq/reaxff 1 0.0 10.0 1.0e-6 reaxff

dump mydmp all atom 1 dump.lammpstrj

# Perform minimization
min_style       cg
minimize        1.0e-4 1.0e-6 100 1000
Switching to 'neigh_modify every 1 delay 0 check yes' setting during minimization
Neighbor list info ...
  update: every = 1 steps, delay = 0 steps, check = yes
  max neighbors/atom: 2000, page size: 100000
  master list distance cutoff = 12
  ghost atom cutoff = 12
  binsize = 6, bins = 4 4 4
  2 neighbor lists, perpetual/occasional/extra = 2 0 0
  (1) pair reaxff, perpetual
      attributes: half, newton off, ghost
      pair build: half/bin/newtoff/ghost
      stencil: full/ghost/bin/3d
      bin: standard
  (2) fix qeq/reaxff, perpetual, copy from (1)
      attributes: half, newton off
      pair build: copy
      stencil: none
      bin: none
Per MPI rank memory allocation (min/avg/max) = 173 | 173 | 173 Mbytes
   Step          Temp          E_pair         E_mol          TotEng         Press     
         0   0             -49906.138      0             -49906.138      1873123.4    
         1   0             -49906.138      0             -49906.138      1873123.4    
Loop time of 0.689678 on 1 procs for 1 steps with 768 atoms

92.9% CPU use with 1 MPI tasks x 1 OpenMP threads

Minimization stats:
  Stopping criterion = energy tolerance
  Energy initial, next-to-last, final = 
      -49906.137908574   -49906.137908574  -49906.1379086039
  Force two-norm initial, final = 6.4711612e-11 0.00011127773
  Force max component initial, final = 3.1390168e-12 7.3869599e-06
  Final line search alpha, max atom move = 1 7.3869599e-06
  Iterations, force evaluations = 1 2

MPI task timing breakdown:
Section |  min time  |  avg time  |  max time  |%varavg| %total
---------------------------------------------------------------
Pair    | 0.65579    | 0.65579    | 0.65579    |   0.0 | 95.09
Neigh   | 0          | 0          | 0          |   0.0 |  0.00
Comm    | 7.1e-05    | 7.1e-05    | 7.1e-05    |   0.0 |  0.01
Output  | 0          | 0          | 0          |   0.0 |  0.00
Modify  | 0.03278    | 0.03278    | 0.03278    |   0.0 |  4.75
Other   |            | 0.001038   |            |       |  0.15

Nlocal:            768 ave         768 max         768 min
Histogram: 1 0 0 0 0 0 0 0 0 0
Nghost:           5785 ave        5785 max        5785 min
Histogram: 1 0 0 0 0 0 0 0 0 0
Neighs:         314027 ave      314027 max      314027 min
Histogram: 1 0 0 0 0 0 0 0 0 0

Total # of neighbors = 314027
Ave neighs/atom = 408.88932
Neighbor list builds = 0
Dangerous builds = 0

thermo          100
clear
OMP_NUM_THREADS environment is not set. Defaulting to 1 thread. (src/comm.cpp:98)
  using 1 OpenMP thread(s) per MPI task
Loaded 1 plugins from C:\Users\user\AppData\Local\LAMMPS 64-bit 2Aug2023\plugins
#ReaxFF for CeO2

#Real units, see LAMMPS documentation
units real

#Periodic boundary
boundary p p p

#Specifies that atoms will have a charge
atom_style charge

#Reads data from file. Formatting of file alligns with examples from LAMMPS github repository
read_data data_1.00.CeO2
Reading data file ...
  orthogonal box = (0 0 0) to (5.46745 5.46745 5.46745)
  1 by 1 by 1 MPI processor grid
  reading atoms ...
  12 atoms
  read_data CPU = 0.000 seconds

# Access and print the value of xhi
variable xhi equal "xhi"
#print "xhi = ${xhi}"

# Calculate n*xhi where n is the number of unit cells per side of the supercell
variable n_times_xhi equal 4*${xhi}
variable n_times_xhi equal 4*5.46745
#print "4 * xhi = ${n_times_xhi}"

# Define dimensions of the supercell using 2*xhi
region supercell block 0.0 ${n_times_xhi} 0.0 ${n_times_xhi} 0.0 ${n_times_xhi} units box
region supercell block 0.0 21.8698 0.0 ${n_times_xhi} 0.0 ${n_times_xhi} units box
region supercell block 0.0 21.8698 0.0 21.8698 0.0 ${n_times_xhi} units box
region supercell block 0.0 21.8698 0.0 21.8698 0.0 21.8698 units box

# Define dimensions of the supercell
#region supercell block 0.0 10.9349 0.0 10.9349 0.0 10.9349 units box

# Create the supercell
replicate 4 4 4
Replication is creating a 4x4x4 = 64 times larger system...
  orthogonal box = (0 0 0) to (21.8698 21.8698 21.8698)
  1 by 1 by 1 MPI processor grid
  768 atoms
  replicate CPU = 0.000 seconds

#Null indicates that the default ReaxFF parameters will be used. checkqeq yes allows charge equilibration method to be used.
#Relevant default parameter: Cutoff distance is found in field.reax: !Upper Taper-radius
pair_style reaxff NULL checkqeq yes

pair_coeff * * field.reax O Ce

neighbor        2.0 bin
neigh_modify every 10 delay 0 check yes

#Only relevant for MD, not minimization
#fix             1 all nve

#Allows for charge equilibration
fix qeq all qeq/reaxff 1 0.0 10.0 1.0e-6 reaxff

dump mydmp all atom 1 dump.lammpstrj

# Perform minimization
min_style       cg
minimize        1.0e-4 1.0e-6 100 1000
Switching to 'neigh_modify every 1 delay 0 check yes' setting during minimization
Neighbor list info ...
  update: every = 1 steps, delay = 0 steps, check = yes
  max neighbors/atom: 2000, page size: 100000
  master list distance cutoff = 12
  ghost atom cutoff = 12
  binsize = 6, bins = 4 4 4
  2 neighbor lists, perpetual/occasional/extra = 2 0 0
  (1) pair reaxff, perpetual
      attributes: half, newton off, ghost
      pair build: half/bin/newtoff/ghost
      stencil: full/ghost/bin/3d
      bin: standard
  (2) fix qeq/reaxff, perpetual, copy from (1)
      attributes: half, newton off
      pair build: copy
      stencil: none
      bin: none
Per MPI rank memory allocation (min/avg/max) = 173 | 173 | 173 Mbytes
   Step          Temp          E_pair         E_mol          TotEng         Press     
         0   0             -57815.101      0             -57815.101      1626827.5    
         1   0             -57815.101      0             -57815.101      1626827.5    
Loop time of 0.694651 on 1 procs for 1 steps with 768 atoms

83.2% CPU use with 1 MPI tasks x 1 OpenMP threads

Minimization stats:
  Stopping criterion = energy tolerance
  Energy initial, next-to-last, final = 
     -57815.1005337372  -57815.1005337372  -57815.1005337384
  Force two-norm initial, final = 3.8560302e-11 7.0451143e-05
  Force max component initial, final = 2.5164315e-12 4.8146769e-06
  Final line search alpha, max atom move = 1 4.8146769e-06
  Iterations, force evaluations = 1 2

MPI task timing breakdown:
Section |  min time  |  avg time  |  max time  |%varavg| %total
---------------------------------------------------------------
Pair    | 0.66086    | 0.66086    | 0.66086    |   0.0 | 95.14
Neigh   | 0          | 0          | 0          |   0.0 |  0.00
Comm    | 7.1e-05    | 7.1e-05    | 7.1e-05    |   0.0 |  0.01
Output  | 0          | 0          | 0          |   0.0 |  0.00
Modify  | 0.032732   | 0.032732   | 0.032732   |   0.0 |  4.71
Other   |            | 0.000989   |            |       |  0.14

Nlocal:            768 ave         768 max         768 min
Histogram: 1 0 0 0 0 0 0 0 0 0
Nghost:           5785 ave        5785 max        5785 min
Histogram: 1 0 0 0 0 0 0 0 0 0
Neighs:         314027 ave      314027 max      314027 min
Histogram: 1 0 0 0 0 0 0 0 0 0

Total # of neighbors = 314027
Ave neighs/atom = 408.88932
Neighbor list builds = 0
Dangerous builds = 0

thermo          100
clear
OMP_NUM_THREADS environment is not set. Defaulting to 1 thread. (src/comm.cpp:98)
  using 1 OpenMP thread(s) per MPI task
Loaded 1 plugins from C:\Users\user\AppData\Local\LAMMPS 64-bit 2Aug2023\plugins
#ReaxFF for CeO2

#Real units, see LAMMPS documentation
units real

#Periodic boundary
boundary p p p

#Specifies that atoms will have a charge
atom_style charge

#Reads data from file. Formatting of file alligns with examples from LAMMPS github repository
read_data data_1.01.CeO2
Reading data file ...
  orthogonal box = (0 0 0) to (5.5221245 5.5221245 5.5221245)
  1 by 1 by 1 MPI processor grid
  reading atoms ...
  12 atoms
  read_data CPU = 0.001 seconds

# Access and print the value of xhi
variable xhi equal "xhi"
#print "xhi = ${xhi}"

# Calculate n*xhi where n is the number of unit cells per side of the supercell
variable n_times_xhi equal 4*${xhi}
variable n_times_xhi equal 4*5.5221245
#print "4 * xhi = ${n_times_xhi}"

# Define dimensions of the supercell using 2*xhi
region supercell block 0.0 ${n_times_xhi} 0.0 ${n_times_xhi} 0.0 ${n_times_xhi} units box
region supercell block 0.0 22.088498 0.0 ${n_times_xhi} 0.0 ${n_times_xhi} units box
region supercell block 0.0 22.088498 0.0 22.088498 0.0 ${n_times_xhi} units box
region supercell block 0.0 22.088498 0.0 22.088498 0.0 22.088498 units box

# Define dimensions of the supercell
#region supercell block 0.0 10.9349 0.0 10.9349 0.0 10.9349 units box

# Create the supercell
replicate 4 4 4
Replication is creating a 4x4x4 = 64 times larger system...
  orthogonal box = (0 0 0) to (22.088498 22.088498 22.088498)
  1 by 1 by 1 MPI processor grid
  768 atoms
  replicate CPU = 0.000 seconds

#Null indicates that the default ReaxFF parameters will be used. checkqeq yes allows charge equilibration method to be used.
#Relevant default parameter: Cutoff distance is found in field.reax: !Upper Taper-radius
pair_style reaxff NULL checkqeq yes

pair_coeff * * field.reax O Ce

neighbor        2.0 bin
neigh_modify every 10 delay 0 check yes

#Only relevant for MD, not minimization
#fix             1 all nve

#Allows for charge equilibration
fix qeq all qeq/reaxff 1 0.0 10.0 1.0e-6 reaxff

dump mydmp all atom 1 dump.lammpstrj

# Perform minimization
min_style       cg
minimize        1.0e-4 1.0e-6 100 1000
Switching to 'neigh_modify every 1 delay 0 check yes' setting during minimization
Neighbor list info ...
  update: every = 1 steps, delay = 0 steps, check = yes
  max neighbors/atom: 2000, page size: 100000
  master list distance cutoff = 12
  ghost atom cutoff = 12
  binsize = 6, bins = 4 4 4
  2 neighbor lists, perpetual/occasional/extra = 2 0 0
  (1) pair reaxff, perpetual
      attributes: half, newton off, ghost
      pair build: half/bin/newtoff/ghost
      stencil: full/ghost/bin/3d
      bin: standard
  (2) fix qeq/reaxff, perpetual, copy from (1)
      attributes: half, newton off
      pair build: copy
      stencil: none
      bin: none
Per MPI rank memory allocation (min/avg/max) = 172.1 | 172.1 | 172.1 Mbytes
   Step          Temp          E_pair         E_mol          TotEng         Press     
         0   0             -64829.537      0             -64829.537      1415436.6    
         1   0             -64829.537      0             -64829.537      1415436.6    
Loop time of 0.687246 on 1 procs for 1 steps with 768 atoms

95.5% CPU use with 1 MPI tasks x 1 OpenMP threads

Minimization stats:
  Stopping criterion = energy tolerance
  Energy initial, next-to-last, final = 
     -64829.5368110531  -64829.5368110531  -64829.5368110547
  Force two-norm initial, final = 6.1169589e-11 4.3144225e-05
  Force max component initial, final = 3.046452e-12 3.2386467e-06
  Final line search alpha, max atom move = 1 3.2386467e-06
  Iterations, force evaluations = 1 2

MPI task timing breakdown:
Section |  min time  |  avg time  |  max time  |%varavg| %total
---------------------------------------------------------------
Pair    | 0.65377    | 0.65377    | 0.65377    |   0.0 | 95.13
Neigh   | 0          | 0          | 0          |   0.0 |  0.00
Comm    | 7.2e-05    | 7.2e-05    | 7.2e-05    |   0.0 |  0.01
Output  | 0          | 0          | 0          |   0.0 |  0.00
Modify  | 0.03241    | 0.03241    | 0.03241    |   0.0 |  4.72
Other   |            | 0.000991   |            |       |  0.14

Nlocal:            768 ave         768 max         768 min
Histogram: 1 0 0 0 0 0 0 0 0 0
Nghost:           5785 ave        5785 max        5785 min
Histogram: 1 0 0 0 0 0 0 0 0 0
Neighs:         303839 ave      303839 max      303839 min
Histogram: 1 0 0 0 0 0 0 0 0 0

Total # of neighbors = 303839
Ave neighs/atom = 395.6237
Neighbor list builds = 0
Dangerous builds = 0

thermo          100
clear
OMP_NUM_THREADS environment is not set. Defaulting to 1 thread. (src/comm.cpp:98)
  using 1 OpenMP thread(s) per MPI task
Loaded 1 plugins from C:\Users\user\AppData\Local\LAMMPS 64-bit 2Aug2023\plugins
#ReaxFF for CeO2

#Real units, see LAMMPS documentation
units real

#Periodic boundary
boundary p p p

#Specifies that atoms will have a charge
atom_style charge

#Reads data from file. Formatting of file alligns with examples from LAMMPS github repository
read_data data_1.02.CeO2
Reading data file ...
  orthogonal box = (0 0 0) to (5.576799 5.576799 5.576799)
  1 by 1 by 1 MPI processor grid
  reading atoms ...
  12 atoms
  read_data CPU = 0.001 seconds

# Access and print the value of xhi
variable xhi equal "xhi"
#print "xhi = ${xhi}"

# Calculate n*xhi where n is the number of unit cells per side of the supercell
variable n_times_xhi equal 4*${xhi}
variable n_times_xhi equal 4*5.576799
#print "4 * xhi = ${n_times_xhi}"

# Define dimensions of the supercell using 2*xhi
region supercell block 0.0 ${n_times_xhi} 0.0 ${n_times_xhi} 0.0 ${n_times_xhi} units box
region supercell block 0.0 22.307196 0.0 ${n_times_xhi} 0.0 ${n_times_xhi} units box
region supercell block 0.0 22.307196 0.0 22.307196 0.0 ${n_times_xhi} units box
region supercell block 0.0 22.307196 0.0 22.307196 0.0 22.307196 units box

# Define dimensions of the supercell
#region supercell block 0.0 10.9349 0.0 10.9349 0.0 10.9349 units box

# Create the supercell
replicate 4 4 4
Replication is creating a 4x4x4 = 64 times larger system...
  orthogonal box = (0 0 0) to (22.307196 22.307196 22.307196)
  1 by 1 by 1 MPI processor grid
  768 atoms
  replicate CPU = 0.000 seconds

#Null indicates that the default ReaxFF parameters will be used. checkqeq yes allows charge equilibration method to be used.
#Relevant default parameter: Cutoff distance is found in field.reax: !Upper Taper-radius
pair_style reaxff NULL checkqeq yes

pair_coeff * * field.reax O Ce

neighbor        2.0 bin
neigh_modify every 10 delay 0 check yes

#Only relevant for MD, not minimization
#fix             1 all nve

#Allows for charge equilibration
fix qeq all qeq/reaxff 1 0.0 10.0 1.0e-6 reaxff

dump mydmp all atom 1 dump.lammpstrj

# Perform minimization
min_style       cg
minimize        1.0e-4 1.0e-6 100 1000
Switching to 'neigh_modify every 1 delay 0 check yes' setting during minimization
Neighbor list info ...
  update: every = 1 steps, delay = 0 steps, check = yes
  max neighbors/atom: 2000, page size: 100000
  master list distance cutoff = 12
  ghost atom cutoff = 12
  binsize = 6, bins = 4 4 4
  2 neighbor lists, perpetual/occasional/extra = 2 0 0
  (1) pair reaxff, perpetual
      attributes: half, newton off, ghost
      pair build: half/bin/newtoff/ghost
      stencil: full/ghost/bin/3d
      bin: standard
  (2) fix qeq/reaxff, perpetual, copy from (1)
      attributes: half, newton off
      pair build: copy
      stencil: none
      bin: none
Per MPI rank memory allocation (min/avg/max) = 171 | 171 | 171 Mbytes
   Step          Temp          E_pair         E_mol          TotEng         Press     
         0   0             -71056.682      0             -71056.682      1232137      
         1   0             -71056.682      0             -71056.682      1232137      
Loop time of 0.466327 on 1 procs for 1 steps with 768 atoms

93.8% CPU use with 1 MPI tasks x 1 OpenMP threads

Minimization stats:
  Stopping criterion = energy tolerance
  Energy initial, next-to-last, final = 
     -71056.6824926413  -71056.6824926413  -71056.6824927037
  Force two-norm initial, final = 4.2172233e-11 3.65359e-06
  Force max component initial, final = 3.1405989e-12 2.4442269e-07
  Final line search alpha, max atom move = 1 2.4442269e-07
  Iterations, force evaluations = 1 1

MPI task timing breakdown:
Section |  min time  |  avg time  |  max time  |%varavg| %total
---------------------------------------------------------------
Pair    | 0.44458    | 0.44458    | 0.44458    |   0.0 | 95.34
Neigh   | 0          | 0          | 0          |   0.0 |  0.00
Comm    | 4.9e-05    | 4.9e-05    | 4.9e-05    |   0.0 |  0.01
Output  | 0          | 0          | 0          |   0.0 |  0.00
Modify  | 0.020687   | 0.020687   | 0.020687   |   0.0 |  4.44
Other   |            | 0.001008   |            |       |  0.22

Nlocal:            768 ave         768 max         768 min
Histogram: 1 0 0 0 0 0 0 0 0 0
Nghost:           5785 ave        5785 max        5785 min
Histogram: 1 0 0 0 0 0 0 0 0 0
Neighs:         280290 ave      280290 max      280290 min
Histogram: 1 0 0 0 0 0 0 0 0 0

Total # of neighbors = 280290
Ave neighs/atom = 364.96094
Neighbor list builds = 0
Dangerous builds = 0

thermo          100
clear
OMP_NUM_THREADS environment is not set. Defaulting to 1 thread. (src/comm.cpp:98)
  using 1 OpenMP thread(s) per MPI task
Loaded 1 plugins from C:\Users\user\AppData\Local\LAMMPS 64-bit 2Aug2023\plugins
#ReaxFF for CeO2

#Real units, see LAMMPS documentation
units real

#Periodic boundary
boundary p p p

#Specifies that atoms will have a charge
atom_style charge

#Reads data from file. Formatting of file alligns with examples from LAMMPS github repository
read_data data_1.03.CeO2
Reading data file ...
  orthogonal box = (0 0 0) to (5.6314735 5.6314735 5.6314735)
  1 by 1 by 1 MPI processor grid
  reading atoms ...
  12 atoms
  read_data CPU = 0.001 seconds

# Access and print the value of xhi
variable xhi equal "xhi"
#print "xhi = ${xhi}"

# Calculate n*xhi where n is the number of unit cells per side of the supercell
variable n_times_xhi equal 4*${xhi}
variable n_times_xhi equal 4*5.6314735
#print "4 * xhi = ${n_times_xhi}"

# Define dimensions of the supercell using 2*xhi
region supercell block 0.0 ${n_times_xhi} 0.0 ${n_times_xhi} 0.0 ${n_times_xhi} units box
region supercell block 0.0 22.525894 0.0 ${n_times_xhi} 0.0 ${n_times_xhi} units box
region supercell block 0.0 22.525894 0.0 22.525894 0.0 ${n_times_xhi} units box
region supercell block 0.0 22.525894 0.0 22.525894 0.0 22.525894 units box

# Define dimensions of the supercell
#region supercell block 0.0 10.9349 0.0 10.9349 0.0 10.9349 units box

# Create the supercell
replicate 4 4 4
Replication is creating a 4x4x4 = 64 times larger system...
  orthogonal box = (0 0 0) to (22.525894 22.525894 22.525894)
  1 by 1 by 1 MPI processor grid
  768 atoms
  replicate CPU = 0.000 seconds

#Null indicates that the default ReaxFF parameters will be used. checkqeq yes allows charge equilibration method to be used.
#Relevant default parameter: Cutoff distance is found in field.reax: !Upper Taper-radius
pair_style reaxff NULL checkqeq yes

pair_coeff * * field.reax O Ce

neighbor        2.0 bin
neigh_modify every 10 delay 0 check yes

#Only relevant for MD, not minimization
#fix             1 all nve

#Allows for charge equilibration
fix qeq all qeq/reaxff 1 0.0 10.0 1.0e-6 reaxff

dump mydmp all atom 1 dump.lammpstrj

# Perform minimization
min_style       cg
minimize        1.0e-4 1.0e-6 100 1000
Switching to 'neigh_modify every 1 delay 0 check yes' setting during minimization
Neighbor list info ...
  update: every = 1 steps, delay = 0 steps, check = yes
  max neighbors/atom: 2000, page size: 100000
  master list distance cutoff = 12
  ghost atom cutoff = 12
  binsize = 6, bins = 4 4 4
  2 neighbor lists, perpetual/occasional/extra = 2 0 0
  (1) pair reaxff, perpetual
      attributes: half, newton off, ghost
      pair build: half/bin/newtoff/ghost
      stencil: full/ghost/bin/3d
      bin: standard
  (2) fix qeq/reaxff, perpetual, copy from (1)
      attributes: half, newton off
      pair build: copy
      stencil: none
      bin: none
Per MPI rank memory allocation (min/avg/max) = 171 | 171 | 171 Mbytes
   Step          Temp          E_pair         E_mol          TotEng         Press     
         0   0             -76582.898      0             -76582.898      1071638.3    
         1   0             -76582.898      0             -76582.898      1071638.3    
Loop time of 0.456819 on 1 procs for 1 steps with 768 atoms

95.8% CPU use with 1 MPI tasks x 1 OpenMP threads

Minimization stats:
  Stopping criterion = energy tolerance
  Energy initial, next-to-last, final = 
     -76582.8976864611  -76582.8976864611   -76582.897686475
  Force two-norm initial, final = 3.7667915e-11 2.5169988e-06
  Force max component initial, final = 2.9976022e-12 1.5227997e-07
  Final line search alpha, max atom move = 1 1.5227997e-07
  Iterations, force evaluations = 1 1

MPI task timing breakdown:
Section |  min time  |  avg time  |  max time  |%varavg| %total
---------------------------------------------------------------
Pair    | 0.43711    | 0.43711    | 0.43711    |   0.0 | 95.69
Neigh   | 0          | 0          | 0          |   0.0 |  0.00
Comm    | 4.7e-05    | 4.7e-05    | 4.7e-05    |   0.0 |  0.01
Output  | 0          | 0          | 0          |   0.0 |  0.00
Modify  | 0.018661   | 0.018661   | 0.018661   |   0.0 |  4.08
Other   |            | 0.001003   |            |       |  0.22

Nlocal:            768 ave         768 max         768 min
Histogram: 1 0 0 0 0 0 0 0 0 0
Nghost:           5785 ave        5785 max        5785 min
Histogram: 1 0 0 0 0 0 0 0 0 0
Neighs:         280290 ave      280290 max      280290 min
Histogram: 1 0 0 0 0 0 0 0 0 0

Total # of neighbors = 280290
Ave neighs/atom = 364.96094
Neighbor list builds = 0
Dangerous builds = 0

thermo          100
clear
OMP_NUM_THREADS environment is not set. Defaulting to 1 thread. (src/comm.cpp:98)
  using 1 OpenMP thread(s) per MPI task
Loaded 1 plugins from C:\Users\user\AppData\Local\LAMMPS 64-bit 2Aug2023\plugins
#ReaxFF for CeO2

#Real units, see LAMMPS documentation
units real

#Periodic boundary
boundary p p p

#Specifies that atoms will have a charge
atom_style charge

#Reads data from file. Formatting of file alligns with examples from LAMMPS github repository
read_data data_1.04.CeO2
Reading data file ...
  orthogonal box = (0 0 0) to (5.686148 5.686148 5.686148)
  1 by 1 by 1 MPI processor grid
  reading atoms ...
  12 atoms
  read_data CPU = 0.001 seconds

# Access and print the value of xhi
variable xhi equal "xhi"
#print "xhi = ${xhi}"

# Calculate n*xhi where n is the number of unit cells per side of the supercell
variable n_times_xhi equal 4*${xhi}
variable n_times_xhi equal 4*5.686148
#print "4 * xhi = ${n_times_xhi}"

# Define dimensions of the supercell using 2*xhi
region supercell block 0.0 ${n_times_xhi} 0.0 ${n_times_xhi} 0.0 ${n_times_xhi} units box
region supercell block 0.0 22.744592 0.0 ${n_times_xhi} 0.0 ${n_times_xhi} units box
region supercell block 0.0 22.744592 0.0 22.744592 0.0 ${n_times_xhi} units box
region supercell block 0.0 22.744592 0.0 22.744592 0.0 22.744592 units box

# Define dimensions of the supercell
#region supercell block 0.0 10.9349 0.0 10.9349 0.0 10.9349 units box

# Create the supercell
replicate 4 4 4
Replication is creating a 4x4x4 = 64 times larger system...
  orthogonal box = (0 0 0) to (22.744592 22.744592 22.744592)
  1 by 1 by 1 MPI processor grid
  768 atoms
  replicate CPU = 0.000 seconds

#Null indicates that the default ReaxFF parameters will be used. checkqeq yes allows charge equilibration method to be used.
#Relevant default parameter: Cutoff distance is found in field.reax: !Upper Taper-radius
pair_style reaxff NULL checkqeq yes

pair_coeff * * field.reax O Ce

neighbor        2.0 bin
neigh_modify every 10 delay 0 check yes

#Only relevant for MD, not minimization
#fix             1 all nve

#Allows for charge equilibration
fix qeq all qeq/reaxff 1 0.0 10.0 1.0e-6 reaxff

dump mydmp all atom 1 dump.lammpstrj

# Perform minimization
min_style       cg
minimize        1.0e-4 1.0e-6 100 1000
Switching to 'neigh_modify every 1 delay 0 check yes' setting during minimization
Neighbor list info ...
  update: every = 1 steps, delay = 0 steps, check = yes
  max neighbors/atom: 2000, page size: 100000
  master list distance cutoff = 12
  ghost atom cutoff = 12
  binsize = 6, bins = 4 4 4
  2 neighbor lists, perpetual/occasional/extra = 2 0 0
  (1) pair reaxff, perpetual
      attributes: half, newton off, ghost
      pair build: half/bin/newtoff/ghost
      stencil: full/ghost/bin/3d
      bin: standard
  (2) fix qeq/reaxff, perpetual, copy from (1)
      attributes: half, newton off
      pair build: copy
      stencil: none
      bin: none
Per MPI rank memory allocation (min/avg/max) = 170.7 | 170.7 | 170.7 Mbytes
   Step          Temp          E_pair         E_mol          TotEng         Press     
         0   0             -81478.24       0             -81478.24       929777.02    
         1   0             -81478.24       0             -81478.24       929777.02    
Loop time of 0.651887 on 1 procs for 1 steps with 768 atoms

95.9% CPU use with 1 MPI tasks x 1 OpenMP threads

Minimization stats:
  Stopping criterion = energy tolerance
  Energy initial, next-to-last, final = 
     -81478.2404113123  -81478.2404113123  -81478.2404113131
  Force two-norm initial, final = 2.7960039e-11 1.7511677e-05
  Force max component initial, final = 2.2666313e-12 1.4558988e-06
  Final line search alpha, max atom move = 1 1.4558988e-06
  Iterations, force evaluations = 1 2

MPI task timing breakdown:
Section |  min time  |  avg time  |  max time  |%varavg| %total
---------------------------------------------------------------
Pair    | 0.62324    | 0.62324    | 0.62324    |   0.0 | 95.60
Neigh   | 0          | 0          | 0          |   0.0 |  0.00
Comm    | 7.6e-05    | 7.6e-05    | 7.6e-05    |   0.0 |  0.01
Output  | 0          | 0          | 0          |   0.0 |  0.00
Modify  | 0.027561   | 0.027561   | 0.027561   |   0.0 |  4.23
Other   |            | 0.001014   |            |       |  0.16

Nlocal:            768 ave         768 max         768 min
Histogram: 1 0 0 0 0 0 0 0 0 0
Nghost:           5785 ave        5785 max        5785 min
Histogram: 1 0 0 0 0 0 0 0 0 0
Neighs:         257970 ave      257970 max      257970 min
Histogram: 1 0 0 0 0 0 0 0 0 0

Total # of neighbors = 257970
Ave neighs/atom = 335.89844
Neighbor list builds = 0
Dangerous builds = 0

thermo          100
clear
OMP_NUM_THREADS environment is not set. Defaulting to 1 thread. (src/comm.cpp:98)
  using 1 OpenMP thread(s) per MPI task
Loaded 1 plugins from C:\Users\user\AppData\Local\LAMMPS 64-bit 2Aug2023\plugins
#ReaxFF for CeO2

#Real units, see LAMMPS documentation
units real

#Periodic boundary
boundary p p p

#Specifies that atoms will have a charge
atom_style charge

#Reads data from file. Formatting of file alligns with examples from LAMMPS github repository
read_data data_1.05.CeO2
Reading data file ...
  orthogonal box = (0 0 0) to (5.7408225 5.7408225 5.7408225)
  1 by 1 by 1 MPI processor grid
  reading atoms ...
  12 atoms
  read_data CPU = 0.001 seconds

# Access and print the value of xhi
variable xhi equal "xhi"
#print "xhi = ${xhi}"

# Calculate n*xhi where n is the number of unit cells per side of the supercell
variable n_times_xhi equal 4*${xhi}
variable n_times_xhi equal 4*5.7408225
#print "4 * xhi = ${n_times_xhi}"

# Define dimensions of the supercell using 2*xhi
region supercell block 0.0 ${n_times_xhi} 0.0 ${n_times_xhi} 0.0 ${n_times_xhi} units box
region supercell block 0.0 22.96329 0.0 ${n_times_xhi} 0.0 ${n_times_xhi} units box
region supercell block 0.0 22.96329 0.0 22.96329 0.0 ${n_times_xhi} units box
region supercell block 0.0 22.96329 0.0 22.96329 0.0 22.96329 units box

# Define dimensions of the supercell
#region supercell block 0.0 10.9349 0.0 10.9349 0.0 10.9349 units box

# Create the supercell
replicate 4 4 4
Replication is creating a 4x4x4 = 64 times larger system...
  orthogonal box = (0 0 0) to (22.96329 22.96329 22.96329)
  1 by 1 by 1 MPI processor grid
  768 atoms
  replicate CPU = 0.000 seconds

#Null indicates that the default ReaxFF parameters will be used. checkqeq yes allows charge equilibration method to be used.
#Relevant default parameter: Cutoff distance is found in field.reax: !Upper Taper-radius
pair_style reaxff NULL checkqeq yes

pair_coeff * * field.reax O Ce

neighbor        2.0 bin
neigh_modify every 10 delay 0 check yes

#Only relevant for MD, not minimization
#fix             1 all nve

#Allows for charge equilibration
fix qeq all qeq/reaxff 1 0.0 10.0 1.0e-6 reaxff

dump mydmp all atom 1 dump.lammpstrj

# Perform minimization
min_style       cg
minimize        1.0e-4 1.0e-6 100 1000
Switching to 'neigh_modify every 1 delay 0 check yes' setting during minimization
Neighbor list info ...
  update: every = 1 steps, delay = 0 steps, check = yes
  max neighbors/atom: 2000, page size: 100000
  master list distance cutoff = 12
  ghost atom cutoff = 12
  binsize = 6, bins = 4 4 4
  2 neighbor lists, perpetual/occasional/extra = 2 0 0
  (1) pair reaxff, perpetual
      attributes: half, newton off, ghost
      pair build: half/bin/newtoff/ghost
      stencil: full/ghost/bin/3d
      bin: standard
  (2) fix qeq/reaxff, perpetual, copy from (1)
      attributes: half, newton off
      pair build: copy
      stencil: none
      bin: none
Per MPI rank memory allocation (min/avg/max) = 170.7 | 170.7 | 170.7 Mbytes
   Step          Temp          E_pair         E_mol          TotEng         Press     
         0   0             -85799.656      0             -85799.656      803328.95    
         1   0             -85799.656      0             -85799.656      803328.95    
Loop time of 0.556141 on 1 procs for 1 steps with 768 atoms

92.7% CPU use with 1 MPI tasks x 1 OpenMP threads

Minimization stats:
  Stopping criterion = linesearch alpha is zero
  Energy initial, next-to-last, final = 
     -85799.6562351798  -85799.6562351798  -85799.6562351787
  Force two-norm initial, final = 4.1398481e-11 3.9211382e-05
  Force max component initial, final = 3.0662695e-12 2.6428984e-06
  Final line search alpha, max atom move = 0.5 1.3214492e-06
  Iterations, force evaluations = 1 2

MPI task timing breakdown:
Section |  min time  |  avg time  |  max time  |%varavg| %total
---------------------------------------------------------------
Pair    | 0.52783    | 0.52783    | 0.52783    |   0.0 | 94.91
Neigh   | 0          | 0          | 0          |   0.0 |  0.00
Comm    | 8.1e-05    | 8.1e-05    | 8.1e-05    |   0.0 |  0.01
Output  | 0          | 0          | 0          |   0.0 |  0.00
Modify  | 0.027289   | 0.027289   | 0.027289   |   0.0 |  4.91
Other   |            | 0.000939   |            |       |  0.17

Nlocal:            768 ave         768 max         768 min
Histogram: 1 0 0 0 0 0 0 0 0 0
Nghost:           5785 ave        5785 max        5785 min
Histogram: 1 0 0 0 0 0 0 0 0 0
Neighs:         257970 ave      257970 max      257970 min
Histogram: 1 0 0 0 0 0 0 0 0 0

Total # of neighbors = 257970
Ave neighs/atom = 335.89844
Neighbor list builds = 0
Dangerous builds = 0

thermo          100
clear
OMP_NUM_THREADS environment is not set. Defaulting to 1 thread. (src/comm.cpp:98)
  using 1 OpenMP thread(s) per MPI task
Loaded 1 plugins from C:\Users\user\AppData\Local\LAMMPS 64-bit 2Aug2023\plugins
#ReaxFF for CeO2

#Real units, see LAMMPS documentation
units real

#Periodic boundary
boundary p p p

#Specifies that atoms will have a charge
atom_style charge

#Reads data from file. Formatting of file alligns with examples from LAMMPS github repository
read_data data_1.06.CeO2
Reading data file ...
  orthogonal box = (0 0 0) to (5.795497 5.795497 5.795497)
  1 by 1 by 1 MPI processor grid
  reading atoms ...
  12 atoms
  read_data CPU = 0.001 seconds

# Access and print the value of xhi
variable xhi equal "xhi"
#print "xhi = ${xhi}"

# Calculate n*xhi where n is the number of unit cells per side of the supercell
variable n_times_xhi equal 4*${xhi}
variable n_times_xhi equal 4*5.795497
#print "4 * xhi = ${n_times_xhi}"

# Define dimensions of the supercell using 2*xhi
region supercell block 0.0 ${n_times_xhi} 0.0 ${n_times_xhi} 0.0 ${n_times_xhi} units box
region supercell block 0.0 23.181988 0.0 ${n_times_xhi} 0.0 ${n_times_xhi} units box
region supercell block 0.0 23.181988 0.0 23.181988 0.0 ${n_times_xhi} units box
region supercell block 0.0 23.181988 0.0 23.181988 0.0 23.181988 units box

# Define dimensions of the supercell
#region supercell block 0.0 10.9349 0.0 10.9349 0.0 10.9349 units box

# Create the supercell
replicate 4 4 4
Replication is creating a 4x4x4 = 64 times larger system...
  orthogonal box = (0 0 0) to (23.181988 23.181988 23.181988)
  1 by 1 by 1 MPI processor grid
  768 atoms
  replicate CPU = 0.001 seconds

#Null indicates that the default ReaxFF parameters will be used. checkqeq yes allows charge equilibration method to be used.
#Relevant default parameter: Cutoff distance is found in field.reax: !Upper Taper-radius
pair_style reaxff NULL checkqeq yes

pair_coeff * * field.reax O Ce

neighbor        2.0 bin
neigh_modify every 10 delay 0 check yes

#Only relevant for MD, not minimization
#fix             1 all nve

#Allows for charge equilibration
fix qeq all qeq/reaxff 1 0.0 10.0 1.0e-6 reaxff

dump mydmp all atom 1 dump.lammpstrj

# Perform minimization
min_style       cg
minimize        1.0e-4 1.0e-6 100 1000
Switching to 'neigh_modify every 1 delay 0 check yes' setting during minimization
Neighbor list info ...
  update: every = 1 steps, delay = 0 steps, check = yes
  max neighbors/atom: 2000, page size: 100000
  master list distance cutoff = 12
  ghost atom cutoff = 12
  binsize = 6, bins = 4 4 4
  2 neighbor lists, perpetual/occasional/extra = 2 0 0
  (1) pair reaxff, perpetual
      attributes: half, newton off, ghost
      pair build: half/bin/newtoff/ghost
      stencil: full/ghost/bin/3d
      bin: standard
  (2) fix qeq/reaxff, perpetual, copy from (1)
      attributes: half, newton off
      pair build: copy
      stencil: none
      bin: none
Per MPI rank memory allocation (min/avg/max) = 142 | 142 | 142 Mbytes
   Step          Temp          E_pair         E_mol          TotEng         Press     
         0   0             -89594.826      0             -89594.826      691360.08    
         1   0             -89594.826      0             -89594.826      691360.08    
Loop time of 0.479579 on 1 procs for 1 steps with 768 atoms

97.7% CPU use with 1 MPI tasks x 1 OpenMP threads

Minimization stats:
  Stopping criterion = energy tolerance
  Energy initial, next-to-last, final = 
     -89594.8261454706  -89594.8261454706   -89594.826145468
  Force two-norm initial, final = 4.3171973e-11 2.3520343e-05
  Force max component initial, final = 3.3530956e-12 1.6077709e-06
  Final line search alpha, max atom move = 1 1.6077709e-06
  Iterations, force evaluations = 1 2

MPI task timing breakdown:
Section |  min time  |  avg time  |  max time  |%varavg| %total
---------------------------------------------------------------
Pair    | 0.45176    | 0.45176    | 0.45176    |   0.0 | 94.20
Neigh   | 0          | 0          | 0          |   0.0 |  0.00
Comm    | 8.8e-05    | 8.8e-05    | 8.8e-05    |   0.0 |  0.02
Output  | 0          | 0          | 0          |   0.0 |  0.00
Modify  | 0.026667   | 0.026667   | 0.026667   |   0.0 |  5.56
Other   |            | 0.001059   |            |       |  0.22

Nlocal:            768 ave         768 max         768 min
Histogram: 1 0 0 0 0 0 0 0 0 0
Nghost:           5785 ave        5785 max        5785 min
Histogram: 1 0 0 0 0 0 0 0 0 0
Neighs:         257970 ave      257970 max      257970 min
Histogram: 1 0 0 0 0 0 0 0 0 0

Total # of neighbors = 257970
Ave neighs/atom = 335.89844
Neighbor list builds = 0
Dangerous builds = 0

thermo          100
clear
OMP_NUM_THREADS environment is not set. Defaulting to 1 thread. (src/comm.cpp:98)
  using 1 OpenMP thread(s) per MPI task
Loaded 1 plugins from C:\Users\user\AppData\Local\LAMMPS 64-bit 2Aug2023\plugins
#ReaxFF for CeO2

#Real units, see LAMMPS documentation
units real

#Periodic boundary
boundary p p p

#Specifies that atoms will have a charge
atom_style charge

#Reads data from file. Formatting of file alligns with examples from LAMMPS github repository
read_data data_1.07.CeO2
Reading data file ...
  orthogonal box = (0 0 0) to (5.8501715 5.8501715 5.8501715)
  1 by 1 by 1 MPI processor grid
  reading atoms ...
  12 atoms
  read_data CPU = 0.001 seconds

# Access and print the value of xhi
variable xhi equal "xhi"
#print "xhi = ${xhi}"

# Calculate n*xhi where n is the number of unit cells per side of the supercell
variable n_times_xhi equal 4*${xhi}
variable n_times_xhi equal 4*5.8501715
#print "4 * xhi = ${n_times_xhi}"

# Define dimensions of the supercell using 2*xhi
region supercell block 0.0 ${n_times_xhi} 0.0 ${n_times_xhi} 0.0 ${n_times_xhi} units box
region supercell block 0.0 23.400686 0.0 ${n_times_xhi} 0.0 ${n_times_xhi} units box
region supercell block 0.0 23.400686 0.0 23.400686 0.0 ${n_times_xhi} units box
region supercell block 0.0 23.400686 0.0 23.400686 0.0 23.400686 units box

# Define dimensions of the supercell
#region supercell block 0.0 10.9349 0.0 10.9349 0.0 10.9349 units box

# Create the supercell
replicate 4 4 4
Replication is creating a 4x4x4 = 64 times larger system...
  orthogonal box = (0 0 0) to (23.400686 23.400686 23.400686)
  1 by 1 by 1 MPI processor grid
  768 atoms
  replicate CPU = 0.000 seconds

#Null indicates that the default ReaxFF parameters will be used. checkqeq yes allows charge equilibration method to be used.
#Relevant default parameter: Cutoff distance is found in field.reax: !Upper Taper-radius
pair_style reaxff NULL checkqeq yes

pair_coeff * * field.reax O Ce

neighbor        2.0 bin
neigh_modify every 10 delay 0 check yes

#Only relevant for MD, not minimization
#fix             1 all nve

#Allows for charge equilibration
fix qeq all qeq/reaxff 1 0.0 10.0 1.0e-6 reaxff

dump mydmp all atom 1 dump.lammpstrj

# Perform minimization
min_style       cg
minimize        1.0e-4 1.0e-6 100 1000
Switching to 'neigh_modify every 1 delay 0 check yes' setting during minimization
Neighbor list info ...
  update: every = 1 steps, delay = 0 steps, check = yes
  max neighbors/atom: 2000, page size: 100000
  master list distance cutoff = 12
  ghost atom cutoff = 12
  binsize = 6, bins = 4 4 4
  2 neighbor lists, perpetual/occasional/extra = 2 0 0
  (1) pair reaxff, perpetual
      attributes: half, newton off, ghost
      pair build: half/bin/newtoff/ghost
      stencil: full/ghost/bin/3d
      bin: standard
  (2) fix qeq/reaxff, perpetual, copy from (1)
      attributes: half, newton off
      pair build: copy
      stencil: none
      bin: none
Per MPI rank memory allocation (min/avg/max) = 141 | 141 | 141 Mbytes
   Step          Temp          E_pair         E_mol          TotEng         Press     
         0   0             -92957.67       0             -92957.67       620923.33    
         1   0             -92957.67       0             -92957.67       620923.33    
Loop time of 0.464752 on 1 procs for 1 steps with 768 atoms

94.1% CPU use with 1 MPI tasks x 1 OpenMP threads

Minimization stats:
  Stopping criterion = linesearch alpha is zero
  Energy initial, next-to-last, final = 
     -92957.6699419297  -92957.6699419297  -92957.6699419329
  Force two-norm initial, final = 3.6504095e-11 1.9027851e-05
  Force max component initial, final = 2.8955172e-12 1.7504403e-06
  Final line search alpha, max atom move = 0.5 8.7522014e-07
  Iterations, force evaluations = 1 2

MPI task timing breakdown:
Section |  min time  |  avg time  |  max time  |%varavg| %total
---------------------------------------------------------------
Pair    | 0.43658    | 0.43658    | 0.43658    |   0.0 | 93.94
Neigh   | 0          | 0          | 0          |   0.0 |  0.00
Comm    | 7e-05      | 7e-05      | 7e-05      |   0.0 |  0.02
Output  | 0          | 0          | 0          |   0.0 |  0.00
Modify  | 0.027137   | 0.027137   | 0.027137   |   0.0 |  5.84
Other   |            | 0.000969   |            |       |  0.21

Nlocal:            768 ave         768 max         768 min
Histogram: 1 0 0 0 0 0 0 0 0 0
Nghost:           5785 ave        5785 max        5785 min
Histogram: 1 0 0 0 0 0 0 0 0 0
Neighs:         238242 ave      238242 max      238242 min
Histogram: 1 0 0 0 0 0 0 0 0 0

Total # of neighbors = 238242
Ave neighs/atom = 310.21094
Neighbor list builds = 0
Dangerous builds = 0

thermo          100
clear
OMP_NUM_THREADS environment is not set. Defaulting to 1 thread. (src/comm.cpp:98)
  using 1 OpenMP thread(s) per MPI task
Loaded 1 plugins from C:\Users\user\AppData\Local\LAMMPS 64-bit 2Aug2023\plugins
#ReaxFF for CeO2

#Real units, see LAMMPS documentation
units real

#Periodic boundary
boundary p p p

#Specifies that atoms will have a charge
atom_style charge

#Reads data from file. Formatting of file alligns with examples from LAMMPS github repository
read_data data_1.08.CeO2
Reading data file ...
  orthogonal box = (0 0 0) to (5.904846 5.904846 5.904846)
  1 by 1 by 1 MPI processor grid
  reading atoms ...
  12 atoms
  read_data CPU = 0.001 seconds

# Access and print the value of xhi
variable xhi equal "xhi"
#print "xhi = ${xhi}"

# Calculate n*xhi where n is the number of unit cells per side of the supercell
variable n_times_xhi equal 4*${xhi}
variable n_times_xhi equal 4*5.904846
#print "4 * xhi = ${n_times_xhi}"

# Define dimensions of the supercell using 2*xhi
region supercell block 0.0 ${n_times_xhi} 0.0 ${n_times_xhi} 0.0 ${n_times_xhi} units box
region supercell block 0.0 23.619384 0.0 ${n_times_xhi} 0.0 ${n_times_xhi} units box
region supercell block 0.0 23.619384 0.0 23.619384 0.0 ${n_times_xhi} units box
region supercell block 0.0 23.619384 0.0 23.619384 0.0 23.619384 units box

# Define dimensions of the supercell
#region supercell block 0.0 10.9349 0.0 10.9349 0.0 10.9349 units box

# Create the supercell
replicate 4 4 4
Replication is creating a 4x4x4 = 64 times larger system...
  orthogonal box = (0 0 0) to (23.619384 23.619384 23.619384)
  1 by 1 by 1 MPI processor grid
  768 atoms
  replicate CPU = 0.000 seconds

#Null indicates that the default ReaxFF parameters will be used. checkqeq yes allows charge equilibration method to be used.
#Relevant default parameter: Cutoff distance is found in field.reax: !Upper Taper-radius
pair_style reaxff NULL checkqeq yes

pair_coeff * * field.reax O Ce

neighbor        2.0 bin
neigh_modify every 10 delay 0 check yes

#Only relevant for MD, not minimization
#fix             1 all nve

#Allows for charge equilibration
fix qeq all qeq/reaxff 1 0.0 10.0 1.0e-6 reaxff

dump mydmp all atom 1 dump.lammpstrj

# Perform minimization
min_style       cg
minimize        1.0e-4 1.0e-6 100 1000
Switching to 'neigh_modify every 1 delay 0 check yes' setting during minimization
Neighbor list info ...
  update: every = 1 steps, delay = 0 steps, check = yes
  max neighbors/atom: 2000, page size: 100000
  master list distance cutoff = 12
  ghost atom cutoff = 12
  binsize = 6, bins = 4 4 4
  2 neighbor lists, perpetual/occasional/extra = 2 0 0
  (1) pair reaxff, perpetual
      attributes: half, newton off, ghost
      pair build: half/bin/newtoff/ghost
      stencil: full/ghost/bin/3d
      bin: standard
  (2) fix qeq/reaxff, perpetual, copy from (1)
      attributes: half, newton off
      pair build: copy
      stencil: none
      bin: none
Per MPI rank memory allocation (min/avg/max) = 140.9 | 140.9 | 140.9 Mbytes
   Step          Temp          E_pair         E_mol          TotEng         Press     
         0   0             -95605.761      0             -95605.761      227249.38    
         1   0             -95605.761      0             -95605.761      227249.38    
Loop time of 0.62327 on 1 procs for 1 steps with 768 atoms

97.8% CPU use with 1 MPI tasks x 1 OpenMP threads

Minimization stats:
  Stopping criterion = linesearch alpha is zero
  Energy initial, next-to-last, final = 
     -95605.7611445711  -95605.7611445711  -95605.7611445677
  Force two-norm initial, final = 8.8590487e-11 0.00027292109
  Force max component initial, final = 7.4655837e-12 1.6146439e-05
  Final line search alpha, max atom move = 0.5 8.0732196e-06
  Iterations, force evaluations = 1 3

MPI task timing breakdown:
Section |  min time  |  avg time  |  max time  |%varavg| %total
---------------------------------------------------------------
Pair    | 0.58752    | 0.58752    | 0.58752    |   0.0 | 94.26
Neigh   | 0          | 0          | 0          |   0.0 |  0.00
Comm    | 8.9e-05    | 8.9e-05    | 8.9e-05    |   0.0 |  0.01
Output  | 0          | 0          | 0          |   0.0 |  0.00
Modify  | 0.034684   | 0.034684   | 0.034684   |   0.0 |  5.56
Other   |            | 0.000977   |            |       |  0.16

Nlocal:            768 ave         768 max         768 min
Histogram: 1 0 0 0 0 0 0 0 0 0
Nghost:           5785 ave        5785 max        5785 min
Histogram: 1 0 0 0 0 0 0 0 0 0
Neighs:         228237 ave      228237 max      228237 min
Histogram: 1 0 0 0 0 0 0 0 0 0

Total # of neighbors = 228237
Ave neighs/atom = 297.18359
Neighbor list builds = 0
Dangerous builds = 0

thermo          100
clear
OMP_NUM_THREADS environment is not set. Defaulting to 1 thread. (src/comm.cpp:98)
  using 1 OpenMP thread(s) per MPI task
Loaded 1 plugins from C:\Users\user\AppData\Local\LAMMPS 64-bit 2Aug2023\plugins
#ReaxFF for CeO2

#Real units, see LAMMPS documentation
units real

#Periodic boundary
boundary p p p

#Specifies that atoms will have a charge
atom_style charge

#Reads data from file. Formatting of file alligns with examples from LAMMPS github repository
read_data data_1.09.CeO2
Reading data file ...
  orthogonal box = (0 0 0) to (5.9595205 5.9595205 5.9595205)
  1 by 1 by 1 MPI processor grid
  reading atoms ...
  12 atoms
  read_data CPU = 0.001 seconds

# Access and print the value of xhi
variable xhi equal "xhi"
#print "xhi = ${xhi}"

# Calculate n*xhi where n is the number of unit cells per side of the supercell
variable n_times_xhi equal 4*${xhi}
variable n_times_xhi equal 4*5.9595205
#print "4 * xhi = ${n_times_xhi}"

# Define dimensions of the supercell using 2*xhi
region supercell block 0.0 ${n_times_xhi} 0.0 ${n_times_xhi} 0.0 ${n_times_xhi} units box
region supercell block 0.0 23.838082 0.0 ${n_times_xhi} 0.0 ${n_times_xhi} units box
region supercell block 0.0 23.838082 0.0 23.838082 0.0 ${n_times_xhi} units box
region supercell block 0.0 23.838082 0.0 23.838082 0.0 23.838082 units box

# Define dimensions of the supercell
#region supercell block 0.0 10.9349 0.0 10.9349 0.0 10.9349 units box

# Create the supercell
replicate 4 4 4
Replication is creating a 4x4x4 = 64 times larger system...
  orthogonal box = (0 0 0) to (23.838082 23.838082 23.838082)
  1 by 1 by 1 MPI processor grid
  768 atoms
  replicate CPU = 0.000 seconds

#Null indicates that the default ReaxFF parameters will be used. checkqeq yes allows charge equilibration method to be used.
#Relevant default parameter: Cutoff distance is found in field.reax: !Upper Taper-radius
pair_style reaxff NULL checkqeq yes

pair_coeff * * field.reax O Ce

neighbor        2.0 bin
neigh_modify every 10 delay 0 check yes

#Only relevant for MD, not minimization
#fix             1 all nve

#Allows for charge equilibration
fix qeq all qeq/reaxff 1 0.0 10.0 1.0e-6 reaxff

dump mydmp all atom 1 dump.lammpstrj

# Perform minimization
min_style       cg
minimize        1.0e-4 1.0e-6 100 1000
Switching to 'neigh_modify every 1 delay 0 check yes' setting during minimization
Neighbor list info ...
  update: every = 1 steps, delay = 0 steps, check = yes
  max neighbors/atom: 2000, page size: 100000
  master list distance cutoff = 12
  ghost atom cutoff = 12
  binsize = 6, bins = 4 4 4
  2 neighbor lists, perpetual/occasional/extra = 2 0 0
  (1) pair reaxff, perpetual
      attributes: half, newton off, ghost
      pair build: half/bin/newtoff/ghost
      stencil: full/ghost/bin/3d
      bin: standard
  (2) fix qeq/reaxff, perpetual, copy from (1)
      attributes: half, newton off
      pair build: copy
      stencil: none
      bin: none
Per MPI rank memory allocation (min/avg/max) = 140.9 | 140.9 | 140.9 Mbytes
   Step          Temp          E_pair         E_mol          TotEng         Press     
         0   0             -96438.397      0             -96438.397      132059.67    
         1   0             -96438.397      0             -96438.397      132059.67    
Loop time of 0.469117 on 1 procs for 1 steps with 768 atoms

96.6% CPU use with 1 MPI tasks x 1 OpenMP threads

Minimization stats:
  Stopping criterion = energy tolerance
  Energy initial, next-to-last, final = 
     -96438.3971300756  -96438.3971300756  -96438.3971300671
  Force two-norm initial, final = 5.2802669e-11 2.6133696e-05
  Force max component initial, final = 4.4337867e-12 1.9716711e-06
  Final line search alpha, max atom move = 1 1.9716711e-06
  Iterations, force evaluations = 1 2

MPI task timing breakdown:
Section |  min time  |  avg time  |  max time  |%varavg| %total
---------------------------------------------------------------
Pair    | 0.44168    | 0.44168    | 0.44168    |   0.0 | 94.15
Neigh   | 0          | 0          | 0          |   0.0 |  0.00
Comm    | 7.2e-05    | 7.2e-05    | 7.2e-05    |   0.0 |  0.02
Output  | 0          | 0          | 0          |   0.0 |  0.00
Modify  | 0.026357   | 0.026357   | 0.026357   |   0.0 |  5.62
Other   |            | 0.001007   |            |       |  0.21

Nlocal:            768 ave         768 max         768 min
Histogram: 1 0 0 0 0 0 0 0 0 0
Nghost:           5785 ave        5785 max        5785 min
Histogram: 1 0 0 0 0 0 0 0 0 0
Neighs:         228237 ave      228237 max      228237 min
Histogram: 1 0 0 0 0 0 0 0 0 0

Total # of neighbors = 228237
Ave neighs/atom = 297.18359
Neighbor list builds = 0
Dangerous builds = 0

thermo          100
clear
OMP_NUM_THREADS environment is not set. Defaulting to 1 thread. (src/comm.cpp:98)
  using 1 OpenMP thread(s) per MPI task
Loaded 1 plugins from C:\Users\user\AppData\Local\LAMMPS 64-bit 2Aug2023\plugins
#ReaxFF for CeO2

#Real units, see LAMMPS documentation
units real

#Periodic boundary
boundary p p p

#Specifies that atoms will have a charge
atom_style charge

#Reads data from file. Formatting of file alligns with examples from LAMMPS github repository
read_data data_1.10.CeO2
Reading data file ...
  orthogonal box = (0 0 0) to (6.014195 6.014195 6.014195)
  1 by 1 by 1 MPI processor grid
  reading atoms ...
  12 atoms
  read_data CPU = 0.001 seconds

# Access and print the value of xhi
variable xhi equal "xhi"
#print "xhi = ${xhi}"

# Calculate n*xhi where n is the number of unit cells per side of the supercell
variable n_times_xhi equal 4*${xhi}
variable n_times_xhi equal 4*6.014195
#print "4 * xhi = ${n_times_xhi}"

# Define dimensions of the supercell using 2*xhi
region supercell block 0.0 ${n_times_xhi} 0.0 ${n_times_xhi} 0.0 ${n_times_xhi} units box
region supercell block 0.0 24.05678 0.0 ${n_times_xhi} 0.0 ${n_times_xhi} units box
region supercell block 0.0 24.05678 0.0 24.05678 0.0 ${n_times_xhi} units box
region supercell block 0.0 24.05678 0.0 24.05678 0.0 24.05678 units box

# Define dimensions of the supercell
#region supercell block 0.0 10.9349 0.0 10.9349 0.0 10.9349 units box

# Create the supercell
replicate 4 4 4
Replication is creating a 4x4x4 = 64 times larger system...
  orthogonal box = (0 0 0) to (24.05678 24.05678 24.05678)
  1 by 1 by 1 MPI processor grid
  768 atoms
[...]
Output  | 0          | 0          | 0          |   0.0 |  0.00
Modify  | 0.020275   | 0.020275   | 0.020275   |   0.0 |  4.45
Other   |            | 0.001073   |            |       |  0.24

Nlocal:            768 ave         768 max         768 min
Histogram: 1 0 0 0 0 0 0 0 0 0
Nghost:           5015 ave        5015 max        5015 min
Histogram: 1 0 0 0 0 0 0 0 0 0
Neighs:         166236 ave      166236 max      166236 min
Histogram: 1 0 0 0 0 0 0 0 0 0

Total # of neighbors = 166236
Ave neighs/atom = 216.45312
Neighbor list builds = 0
Dangerous builds = 0

thermo          100
clear
OMP_NUM_THREADS environment is not set. Defaulting to 1 thread. (src/comm.cpp:98)
  using 1 OpenMP thread(s) per MPI task
Loaded 1 plugins from C:\Users\user\AppData\Local\LAMMPS 64-bit 2Aug2023\plugins
#ReaxFF for CeO2

#Real units, see LAMMPS documentation
units real

#Periodic boundary
boundary p p p

#Specifies that atoms will have a charge
atom_style charge

#Reads data from file. Formatting of file alligns with examples from LAMMPS github repository
read_data data_1.22.CeO2
Reading data file ...
  orthogonal box = (0 0 0) to (6.670289 6.670289 6.670289)
  1 by 1 by 1 MPI processor grid
  reading atoms ...
  12 atoms
  read_data CPU = 0.001 seconds

# Access and print the value of xhi
variable xhi equal "xhi"
#print "xhi = ${xhi}"

# Calculate n*xhi where n is the number of unit cells per side of the supercell
variable n_times_xhi equal 4*${xhi}
variable n_times_xhi equal 4*6.670289
#print "4 * xhi = ${n_times_xhi}"

# Define dimensions of the supercell using 2*xhi
region supercell block 0.0 ${n_times_xhi} 0.0 ${n_times_xhi} 0.0 ${n_times_xhi} units box
region supercell block 0.0 26.681156 0.0 ${n_times_xhi} 0.0 ${n_times_xhi} units box
region supercell block 0.0 26.681156 0.0 26.681156 0.0 ${n_times_xhi} units box
region supercell block 0.0 26.681156 0.0 26.681156 0.0 26.681156 units box

# Define dimensions of the supercell
#region supercell block 0.0 10.9349 0.0 10.9349 0.0 10.9349 units box

# Create the supercell
replicate 4 4 4
Replication is creating a 4x4x4 = 64 times larger system...
  orthogonal box = (0 0 0) to (26.681156 26.681156 26.681156)
  1 by 1 by 1 MPI processor grid
  768 atoms
  replicate CPU = 0.000 seconds

#Null indicates that the default ReaxFF parameters will be used. checkqeq yes allows charge equilibration method to be used.
#Relevant default parameter: Cutoff distance is found in field.reax: !Upper Taper-radius
pair_style reaxff NULL checkqeq yes

pair_coeff * * field.reax O Ce

neighbor        2.0 bin
neigh_modify every 10 delay 0 check yes

#Only relevant for MD, not minimization
#fix             1 all nve

#Allows for charge equilibration
fix qeq all qeq/reaxff 1 0.0 10.0 1.0e-6 reaxff

dump mydmp all atom 1 dump.lammpstrj

# Perform minimization
min_style       cg
minimize        1.0e-4 1.0e-6 100 1000
Switching to 'neigh_modify every 1 delay 0 check yes' setting during minimization
Neighbor list info ...
  update: every = 1 steps, delay = 0 steps, check = yes
  max neighbors/atom: 2000, page size: 100000
  master list distance cutoff = 12
  ghost atom cutoff = 12
  binsize = 6, bins = 5 5 5
  2 neighbor lists, perpetual/occasional/extra = 2 0 0
  (1) pair reaxff, perpetual
      attributes: half, newton off, ghost
      pair build: half/bin/newtoff/ghost
      stencil: full/ghost/bin/3d
      bin: standard
  (2) fix qeq/reaxff, perpetual, copy from (1)
      attributes: half, newton off
      pair build: copy
      stencil: none
      bin: none
Per MPI rank memory allocation (min/avg/max) = 123.7 | 123.7 | 123.7 Mbytes
   Step          Temp          E_pair         E_mol          TotEng         Press     
         0   0             -98340.458      0             -98340.458     -32186.157    
         1   0             -98340.458      0             -98340.458     -32186.157    
Loop time of 0.29123 on 1 procs for 1 steps with 768 atoms

96.6% CPU use with 1 MPI tasks x 1 OpenMP threads

Minimization stats:
  Stopping criterion = energy tolerance
  Energy initial, next-to-last, final = 
     -98340.4577408263  -98340.4577408263  -98340.4577408382
  Force two-norm initial, final = 6.2552372e-11 2.785664e-07
  Force max component initial, final = 5.3352878e-12 2.1792325e-08
  Final line search alpha, max atom move = 1 2.1792325e-08
  Iterations, force evaluations = 1 1

MPI task timing breakdown:
Section |  min time  |  avg time  |  max time  |%varavg| %total
---------------------------------------------------------------
Pair    | 0.27819    | 0.27819    | 0.27819    |   0.0 | 95.52
Neigh   | 0          | 0          | 0          |   0.0 |  0.00
Comm    | 4e-05      | 4e-05      | 4e-05      |   0.0 |  0.01
Output  | 0          | 0          | 0          |   0.0 |  0.00
Modify  | 0.012001   | 0.012001   | 0.012001   |   0.0 |  4.12
Other   |            | 0.000998   |            |       |  0.34

Nlocal:            768 ave         768 max         768 min
Histogram: 1 0 0 0 0 0 0 0 0 0
Nghost:           5015 ave        5015 max        5015 min
Histogram: 1 0 0 0 0 0 0 0 0 0
Neighs:         156828 ave      156828 max      156828 min
Histogram: 1 0 0 0 0 0 0 0 0 0

Total # of neighbors = 156828
Ave neighs/atom = 204.20312
Neighbor list builds = 0
Dangerous builds = 0

thermo          100
clear
OMP_NUM_THREADS environment is not set. Defaulting to 1 thread. (src/comm.cpp:98)
  using 1 OpenMP thread(s) per MPI task
Loaded 1 plugins from C:\Users\user\AppData\Local\LAMMPS 64-bit 2Aug2023\plugins
#ReaxFF for CeO2

#Real units, see LAMMPS documentation
units real

#Periodic boundary
boundary p p p

#Specifies that atoms will have a charge
atom_style charge

#Reads data from file. Formatting of file alligns with examples from LAMMPS github repository
read_data data_1.23.CeO2
Reading data file ...
  orthogonal box = (0 0 0) to (6.7249635 6.7249635 6.7249635)
  1 by 1 by 1 MPI processor grid
  reading atoms ...
  12 atoms
  read_data CPU = 0.001 seconds

# Access and print the value of xhi
variable xhi equal "xhi"
#print "xhi = ${xhi}"

# Calculate n*xhi where n is the number of unit cells per side of the supercell
variable n_times_xhi equal 4*${xhi}
variable n_times_xhi equal 4*6.7249635
#print "4 * xhi = ${n_times_xhi}"

# Define dimensions of the supercell using 2*xhi
region supercell block 0.0 ${n_times_xhi} 0.0 ${n_times_xhi} 0.0 ${n_times_xhi} units box
region supercell block 0.0 26.899854 0.0 ${n_times_xhi} 0.0 ${n_times_xhi} units box
region supercell block 0.0 26.899854 0.0 26.899854 0.0 ${n_times_xhi} units box
region supercell block 0.0 26.899854 0.0 26.899854 0.0 26.899854 units box

# Define dimensions of the supercell
#region supercell block 0.0 10.9349 0.0 10.9349 0.0 10.9349 units box

# Create the supercell
replicate 4 4 4
Replication is creating a 4x4x4 = 64 times larger system...
  orthogonal box = (0 0 0) to (26.899854 26.899854 26.899854)
  1 by 1 by 1 MPI processor grid
  768 atoms
  replicate CPU = 0.000 seconds

#Null indicates that the default ReaxFF parameters will be used. checkqeq yes allows charge equilibration method to be used.
#Relevant default parameter: Cutoff distance is found in field.reax: !Upper Taper-radius
pair_style reaxff NULL checkqeq yes

pair_coeff * * field.reax O Ce

neighbor        2.0 bin
neigh_modify every 10 delay 0 check yes

#Only relevant for MD, not minimization
#fix             1 all nve

#Allows for charge equilibration
fix qeq all qeq/reaxff 1 0.0 10.0 1.0e-6 reaxff

dump mydmp all atom 1 dump.lammpstrj

# Perform minimization
min_style       cg
minimize        1.0e-4 1.0e-6 100 1000
Switching to 'neigh_modify every 1 delay 0 check yes' setting during minimization
Neighbor list info ...
  update: every = 1 steps, delay = 0 steps, check = yes
  max neighbors/atom: 2000, page size: 100000
  master list distance cutoff = 12
  ghost atom cutoff = 12
  binsize = 6, bins = 5 5 5
  2 neighbor lists, perpetual/occasional/extra = 2 0 0
  (1) pair reaxff, perpetual
      attributes: half, newton off, ghost
      pair build: half/bin/newtoff/ghost
      stencil: full/ghost/bin/3d
      bin: standard
  (2) fix qeq/reaxff, perpetual, copy from (1)
      attributes: half, newton off
      pair build: copy
      stencil: none
      bin: none
Per MPI rank memory allocation (min/avg/max) = 122.7 | 122.7 | 122.7 Mbytes
   Step          Temp          E_pair         E_mol          TotEng         Press     
         0   0             -98025.131      0             -98025.131     -60075.13     
         1   0             -98025.131      0             -98025.131     -60075.13     
Loop time of 0.425238 on 1 procs for 1 steps with 768 atoms

80.8% CPU use with 1 MPI tasks x 1 OpenMP threads

Minimization stats:
  Stopping criterion = energy tolerance
  Energy initial, next-to-last, final = 
     -98025.1309344919  -98025.1309344919  -98025.1309344942
  Force two-norm initial, final = 2.9124658e-11 1.063986e-06
  Force max component initial, final = 2.653433e-12 7.8340828e-08
  Final line search alpha, max atom move = 1 7.8340828e-08
  Iterations, force evaluations = 1 2

MPI task timing breakdown:
Section |  min time  |  avg time  |  max time  |%varavg| %total
---------------------------------------------------------------
Pair    | 0.40644    | 0.40644    | 0.40644    |   0.0 | 95.58
Neigh   | 0          | 0          | 0          |   0.0 |  0.00
Comm    | 7.8e-05    | 7.8e-05    | 7.8e-05    |   0.0 |  0.02
Output  | 0          | 0          | 0          |   0.0 |  0.00
Modify  | 0.017675   | 0.017675   | 0.017675   |   0.0 |  4.16
Other   |            | 0.001048   |            |       |  0.25

Nlocal:            768 ave         768 max         768 min
Histogram: 1 0 0 0 0 0 0 0 0 0
Nghost:           5015 ave        5015 max        5015 min
Histogram: 1 0 0 0 0 0 0 0 0 0
Neighs:         138012 ave      138012 max      138012 min
Histogram: 1 0 0 0 0 0 0 0 0 0

Total # of neighbors = 138012
Ave neighs/atom = 179.70312
Neighbor list builds = 0
Dangerous builds = 0

thermo          100
clear
OMP_NUM_THREADS environment is not set. Defaulting to 1 thread. (src/comm.cpp:98)
  using 1 OpenMP thread(s) per MPI task
Loaded 1 plugins from C:\Users\user\AppData\Local\LAMMPS 64-bit 2Aug2023\plugins
#ReaxFF for CeO2

#Real units, see LAMMPS documentation
units real

#Periodic boundary
boundary p p p

#Specifies that atoms will have a charge
atom_style charge

#Reads data from file. Formatting of file alligns with examples from LAMMPS github repository
read_data data_1.24.CeO2
Reading data file ...
  orthogonal box = (0 0 0) to (6.779638 6.779638 6.779638)
  1 by 1 by 1 MPI processor grid
  reading atoms ...
  12 atoms
  read_data CPU = 0.001 seconds

# Access and print the value of xhi
variable xhi equal "xhi"
#print "xhi = ${xhi}"

# Calculate n*xhi where n is the number of unit cells per side of the supercell
variable n_times_xhi equal 4*${xhi}
variable n_times_xhi equal 4*6.779638
#print "4 * xhi = ${n_times_xhi}"

# Define dimensions of the supercell using 2*xhi
region supercell block 0.0 ${n_times_xhi} 0.0 ${n_times_xhi} 0.0 ${n_times_xhi} units box
region supercell block 0.0 27.118552 0.0 ${n_times_xhi} 0.0 ${n_times_xhi} units box
region supercell block 0.0 27.118552 0.0 27.118552 0.0 ${n_times_xhi} units box
region supercell block 0.0 27.118552 0.0 27.118552 0.0 27.118552 units box

# Define dimensions of the supercell
#region supercell block 0.0 10.9349 0.0 10.9349 0.0 10.9349 units box

# Create the supercell
replicate 4 4 4
Replication is creating a 4x4x4 = 64 times larger system...
  orthogonal box = (0 0 0) to (27.118552 27.118552 27.118552)
  1 by 1 by 1 MPI processor grid
  768 atoms
  replicate CPU = 0.000 seconds

#Null indicates that the default ReaxFF parameters will be used. checkqeq yes allows charge equilibration method to be used.
#Relevant default parameter: Cutoff distance is found in field.reax: !Upper Taper-radius
pair_style reaxff NULL checkqeq yes

pair_coeff * * field.reax O Ce

neighbor        2.0 bin
neigh_modify every 10 delay 0 check yes

#Only relevant for MD, not minimization
#fix             1 all nve

#Allows for charge equilibration
fix qeq all qeq/reaxff 1 0.0 10.0 1.0e-6 reaxff

dump mydmp all atom 1 dump.lammpstrj

# Perform minimization
min_style       cg
minimize        1.0e-4 1.0e-6 100 1000
Switching to 'neigh_modify every 1 delay 0 check yes' setting during minimization
Neighbor list info ...
  update: every = 1 steps, delay = 0 steps, check = yes
  max neighbors/atom: 2000, page size: 100000
  master list distance cutoff = 12
  ghost atom cutoff = 12
  binsize = 6, bins = 5 5 5
  2 neighbor lists, perpetual/occasional/extra = 2 0 0
  (1) pair reaxff, perpetual
      attributes: half, newton off, ghost
      pair build: half/bin/newtoff/ghost
      stencil: full/ghost/bin/3d
      bin: standard
  (2) fix qeq/reaxff, perpetual, copy from (1)
      attributes: half, newton off
      pair build: copy
      stencil: none
      bin: none
Per MPI rank memory allocation (min/avg/max) = 122.7 | 122.7 | 122.7 Mbytes
   Step          Temp          E_pair         E_mol          TotEng         Press     
         0   0             -97506.885      0             -97506.885     -87463.197    
         1   0             -97506.885      0             -97506.885     -87463.197    
Loop time of 0.400202 on 1 procs for 1 steps with 768 atoms

93.7% CPU use with 1 MPI tasks x 1 OpenMP threads

Minimization stats:
  Stopping criterion = energy tolerance
  Energy initial, next-to-last, final = 
     -97506.8854007575  -97506.8854007575  -97506.8854007692
  Force two-norm initial, final = 6.0107842e-11 1.9199902e-06
  Force max component initial, final = 5.1585403e-12 2.3208761e-07
  Final line search alpha, max atom move = 1 2.3208761e-07
  Iterations, force evaluations = 1 2

MPI task timing breakdown:
Section |  min time  |  avg time  |  max time  |%varavg| %total
---------------------------------------------------------------
Pair    | 0.38392    | 0.38392    | 0.38392    |   0.0 | 95.93
Neigh   | 0          | 0          | 0          |   0.0 |  0.00
Comm    | 6.3e-05    | 6.3e-05    | 6.3e-05    |   0.0 |  0.02
Output  | 0          | 0          | 0          |   0.0 |  0.00
Modify  | 0.015261   | 0.015261   | 0.015261   |   0.0 |  3.81
Other   |            | 0.000962   |            |       |  0.24

Nlocal:            768 ave         768 max         768 min
Histogram: 1 0 0 0 0 0 0 0 0 0
Nghost:           5015 ave        5015 max        5015 min
Histogram: 1 0 0 0 0 0 0 0 0 0
Neighs:         138012 ave      138012 max      138012 min
Histogram: 1 0 0 0 0 0 0 0 0 0

Total # of neighbors = 138012
Ave neighs/atom = 179.70312
Neighbor list builds = 0
Dangerous builds = 0

thermo          100
clear
OMP_NUM_THREADS environment is not set. Defaulting to 1 thread. (src/comm.cpp:98)
  using 1 OpenMP thread(s) per MPI task
Loaded 1 plugins from C:\Users\user\AppData\Local\LAMMPS 64-bit 2Aug2023\plugins
#ReaxFF for CeO2

#Real units, see LAMMPS documentation
units real

#Periodic boundary
boundary p p p

#Specifies that atoms will have a charge
atom_style charge

#Reads data from file. Formatting of file alligns with examples from LAMMPS github repository
read_data data_1.25.CeO2
Reading data file ...
  orthogonal box = (0 0 0) to (6.8343125 6.8343125 6.8343125)
  1 by 1 by 1 MPI processor grid
  reading atoms ...
  12 atoms
  read_data CPU = 0.001 seconds

# Access and print the value of xhi
variable xhi equal "xhi"
#print "xhi = ${xhi}"

# Calculate n*xhi where n is the number of unit cells per side of the supercell
variable n_times_xhi equal 4*${xhi}
variable n_times_xhi equal 4*6.8343125
#print "4 * xhi = ${n_times_xhi}"

# Define dimensions of the supercell using 2*xhi
region supercell block 0.0 ${n_times_xhi} 0.0 ${n_times_xhi} 0.0 ${n_times_xhi} units box
region supercell block 0.0 27.33725 0.0 ${n_times_xhi} 0.0 ${n_times_xhi} units box
region supercell block 0.0 27.33725 0.0 27.33725 0.0 ${n_times_xhi} units box
region supercell block 0.0 27.33725 0.0 27.33725 0.0 27.33725 units box

# Define dimensions of the supercell
#region supercell block 0.0 10.9349 0.0 10.9349 0.0 10.9349 units box

# Create the supercell
replicate 4 4 4
Replication is creating a 4x4x4 = 64 times larger system...
  orthogonal box = (0 0 0) to (27.33725 27.33725 27.33725)
  1 by 1 by 1 MPI processor grid
  768 atoms
  replicate CPU = 0.000 seconds

#Null indicates that the default ReaxFF parameters will be used. checkqeq yes allows charge equilibration method to be used.
#Relevant default parameter: Cutoff distance is found in field.reax: !Upper Taper-radius
pair_style reaxff NULL checkqeq yes

pair_coeff * * field.reax O Ce

neighbor        2.0 bin
neigh_modify every 10 delay 0 check yes

#Only relevant for MD, not minimization
#fix             1 all nve

#Allows for charge equilibration
fix qeq all qeq/reaxff 1 0.0 10.0 1.0e-6 reaxff

dump mydmp all atom 1 dump.lammpstrj

# Perform minimization
min_style       cg
minimize        1.0e-4 1.0e-6 100 1000
Switching to 'neigh_modify every 1 delay 0 check yes' setting during minimization
Neighbor list info ...
  update: every = 1 steps, delay = 0 steps, check = yes
  max neighbors/atom: 2000, page size: 100000
  master list distance cutoff = 12
  ghost atom cutoff = 12
  binsize = 6, bins = 5 5 5
  2 neighbor lists, perpetual/occasional/extra = 2 0 0
  (1) pair reaxff, perpetual
      attributes: half, newton off, ghost
      pair build: half/bin/newtoff/ghost
      stencil: full/ghost/bin/3d
      bin: standard
  (2) fix qeq/reaxff, perpetual, copy from (1)
      attributes: half, newton off
      pair build: copy
      stencil: none
      bin: none
Per MPI rank memory allocation (min/avg/max) = 122.7 | 122.7 | 122.7 Mbytes
   Step          Temp          E_pair         E_mol          TotEng         Press     
         0   0             -96808.843      0             -96808.843     -107381.03    
         1   0             -96808.843      0             -96808.843     -107381.03    
Loop time of 0.300149 on 1 procs for 1 steps with 768 atoms

72.9% CPU use with 1 MPI tasks x 1 OpenMP threads

Minimization stats:
  Stopping criterion = energy tolerance
  Energy initial, next-to-last, final = 
     -96808.8431715846  -96808.8431715846  -96808.8431716045
  Force two-norm initial, final = 6.2657804e-11 1.9080464e-07
  Force max component initial, final = 5.3161087e-12 2.1838675e-08
  Final line search alpha, max atom move = 1 2.1838675e-08
  Iterations, force evaluations = 1 1

MPI task timing breakdown:
Section |  min time  |  avg time  |  max time  |%varavg| %total
---------------------------------------------------------------
Pair    | 0.28907    | 0.28907    | 0.28907    |   0.0 | 96.31
Neigh   | 0          | 0          | 0          |   0.0 |  0.00
Comm    | 5.1e-05    | 5.1e-05    | 5.1e-05    |   0.0 |  0.02
Output  | 0          | 0          | 0          |   0.0 |  0.00
Modify  | 0.009994   | 0.009994   | 0.009994   |   0.0 |  3.33
Other   |            | 0.001034   |            |       |  0.34

Nlocal:            768 ave         768 max         768 min
Histogram: 1 0 0 0 0 0 0 0 0 0
Nghost:           5015 ave        5015 max        5015 min
Histogram: 1 0 0 0 0 0 0 0 0 0
Neighs:         138012 ave      138012 max      138012 min
Histogram: 1 0 0 0 0 0 0 0 0 0

Total # of neighbors = 138012
Ave neighs/atom = 179.70312
Neighbor list builds = 0
Dangerous builds = 0
  
thermo          100
Total wall time: 0:03:40
