 # "Ce32 O64"
  
          96  atoms
           2  atom types
 
      0.000000000000       5.467450000000  xlo xhi
      0.000000000000       5.467450000000  ylo yhi
      0.000000000000      72.372700000000  zlo zhi
 
Masses
 
            1   140.11600000            # Ce
            2   15.99900000             # O
 
Atoms # atomic
 
         1         1   4.0        5.467450000000       0.000000000000       14.999965802000
         2         1   4.0        2.733725000000       0.000000000000       17.733482681000
         3         1   4.0        5.467450000000       2.733725000000       17.733482681000
         4         1   4.0        2.733725000000       2.733725000000       14.999965802000
         5         2   -2.0        1.366862500000       1.366862500000       16.367086105000
         6         2   -2.0        4.100587500000       4.100587500000       19.100602984000
         7         2   -2.0        1.366862500000       1.366862500000       19.100602984000
         8         2   -2.0        4.100587500000       4.100587500000       16.367086105000
         9         2   -2.0        4.100587500000       1.366862500000       19.100602984000
         10         2   -2.0        1.366862500000       4.100587500000       16.367086105000
         11         2   -2.0        4.100587500000       1.366862500000       16.367086105000
         12         2   -2.0        1.366862500000       4.100587500000       19.100602984000
         13         1   4.0        5.467450000000       0.000000000000       20.467723287000
         14         1   4.0        2.733725000000       5.467450000000       23.201240166000
         15         1   4.0        5.467450000000       2.733725000000       23.201240166000
         16         1   4.0        2.733725000000       2.733725000000       20.467723287000
         17         2   -2.0        1.366862500000       1.366862500000       21.834119863000
         18         2   -2.0        4.100587500000       4.100587500000       24.568360469000
         19         2   -2.0        1.366862500000       1.366862500000       24.568360469000
         20         2   -2.0        4.100587500000       4.100587500000       21.834119863000
         21         2   -2.0        4.100587500000       1.366862500000       24.568360469000
         22         2   -2.0        1.366862500000       4.100587500000       21.834119863000
         23         2   -2.0        4.100587500000       1.366862500000       21.834119863000
         24         2   -2.0        1.366862500000       4.100587500000       24.568360469000
         25         1   4.0        5.467450000000       0.000000000000       25.934757045000
         26         1   4.0        2.733725000000       5.467450000000       28.668273924000
         27         1   4.0        5.467450000000       2.733725000000       28.668273924000
         28         1   4.0        2.733725000000       2.733725000000       25.934757045000
         29         2   -2.0        1.366862500000       1.366862500000       27.301877348000
         30         2   -2.0        4.100587500000       4.100587500000       30.035394227000
         31         2   -2.0        1.366862500000       1.366862500000       30.035394227000
         32         2   -2.0        4.100587500000       4.100587500000       27.301877348000
         33         2   -2.0        4.100587500000       1.366862500000       30.035394227000
         34         2   -2.0        1.366862500000       4.100587500000       27.301877348000
         35         2   -2.0        4.100587500000       1.366862500000       27.301877348000
         36         2   -2.0        1.366862500000       4.100587500000       30.035394227000
         37         1   4.0        5.467450000000       0.000000000000       31.402514530000
         38         1   4.0        2.733725000000       5.467450000000       34.136031409000
         39         1   4.0        5.467450000000       2.733725000000       34.136031409000
         40         1   4.0        2.733725000000       2.733725000000       31.402514530000
         41         2   -2.0        1.366862500000       1.366862500000       32.768911106000
         42         2   -2.0        4.100587500000       4.100587500000       35.503151712000
         43         2   -2.0        1.366862500000       1.366862500000       35.503151712000
         44         2   -2.0        4.100587500000       4.100587500000       32.768911106000
         45         2   -2.0        4.100587500000       1.366862500000       35.503151712000
         46         2   -2.0        1.366862500000       4.100587500000       32.768911106000
         47         2   -2.0        4.100587500000       1.366862500000       32.768911106000
         48         2   -2.0        1.366862500000       4.100587500000       35.503151712000
         49         1   4.0        5.467450000000       5.467450000000       36.869548288000
         50         1   4.0        2.733725000000       0.000000000000       39.603788894000
         51         1   4.0        0.000000000000       2.733725000000       39.603788894000
         52         1   4.0        2.733725000000       2.733725000000       36.869548288000
         53         2   -2.0        1.366862500000       1.366862500000       38.236668591000
         54         2   -2.0        4.100587500000       4.100587500000       40.970185470000
         55         2   -2.0        1.366862500000       1.366862500000       40.970185470000
         56         2   -2.0        4.100587500000       4.100587500000       38.236668591000
         57         2   -2.0        4.100587500000       1.366862500000       40.970185470000
         58         2   -2.0        1.366862500000       4.100587500000       38.236668591000
         59         2   -2.0        4.100587500000       1.366862500000       38.236668591000
         60         2   -2.0        1.366862500000       4.100587500000       40.970185470000
         61         1   4.0        5.467450000000       0.000000000000       42.337305773000
         62         1   4.0        2.733725000000       5.467450000000       45.070822652000
         63         1   4.0        5.467450000000       2.733725000000       45.070822652000
         64         1   4.0        2.733725000000       2.733725000000       42.337305773000
         65         2   -2.0        1.366862500000       1.366862500000       43.704426076000
         66         2   -2.0        4.100587500000       4.100587500000       46.437942955000
         67         2   -2.0        1.366862500000       1.366862500000       46.437942955000
         68         2   -2.0        4.100587500000       4.100587500000       43.704426076000
         69         2   -2.0        4.100587500000       1.366862500000       46.437942955000
         70         2   -2.0        1.366862500000       4.100587500000       43.704426076000
         71         2   -2.0        4.100587500000       1.366862500000       43.704426076000
         72         2   -2.0        1.366862500000       4.100587500000       46.437942955000
         73         1   4.0        0.000000000000       0.000000000000       47.804339531000
         74         1   4.0        2.733725000000       0.000000000000       50.538580137000
         75         1   4.0        0.000000000000       2.733725000000       50.538580137000
         76         1   4.0        2.733725000000       2.733725000000       47.804339531000
         77         2   -2.0        1.366862500000       1.366862500000       49.171459834000
         78         2   -2.0        4.100587500000       4.100587500000       51.904976713000
         79         2   -2.0        1.366862500000       1.366862500000       51.904976713000
         80         2   -2.0        4.100587500000       4.100587500000       49.171459834000
         81         2   -2.0        4.100587500000       1.366862500000       51.904976713000
         82         2   -2.0        1.366862500000       4.100587500000       49.171459834000
         83         2   -2.0        4.100587500000       1.366862500000       49.171459834000
         84         2   -2.0        1.366862500000       4.100587500000       51.904976713000
         85         1   4.0        5.467450000000       5.467450000000       53.272097016000
         86         1   4.0        2.733725000000       0.000000000000       56.005613895000
         87         1   4.0        5.467450000000       2.733725000000       56.005613895000
         88         1   4.0        2.733725000000       2.733725000000       53.272097016000
         89         2   -2.0        1.366862500000       1.366862500000       54.639217319000
         90         2   -2.0        4.100587500000       4.100587500000       57.372734198000
         91         2   -2.0        1.366862500000       1.366862500000       57.372734198000
         92         2   -2.0        4.100587500000       4.100587500000       54.639217319000
         93         2   -2.0        4.100587500000       1.366862500000       57.372734198000
         94         2   -2.0        1.366862500000       4.100587500000       54.639217319000
         95         2   -2.0        4.100587500000       1.366862500000       54.639217319000
         96         2   -2.0        1.366862500000       4.100587500000       57.372734198000
