 # "Ce512 O1024"
  
        1536  atoms
           2  atom types
 
      0.000000000000      21.869800000000  xlo xhi
      0.000000000000      21.869800000000  ylo yhi
      0.000000000000      72.372700000000  zlo zhi
 
Masses
 
            1   140.11600000            # Ce
            2   15.99900000             # O
 
Atoms # atomic
 
         1    1       21.869800000000       0.000000000000      14.999965802000
         2    1        2.733725000000       0.000000000000      17.733482681000
         3    1       21.869800000000       2.733725000000      17.733482681000
         4    1        2.733725000000       2.733725000000      14.999965802000
         5    2        1.366862500000       1.366862500000      16.367086105000
         6    2        4.100587500000       4.100587500000      19.100602984000
         7    2        1.366862500000       1.366862500000      19.100602984000
         8    2        4.100587500000       4.100587500000      16.367086105000
         9    2        4.100587500000       1.366862500000      19.100602984000
        10    2        1.366862500000       4.100587500000      16.367086105000
        11    2        4.100587500000       1.366862500000      16.367086105000
        12    2        1.366862500000       4.100587500000      19.100602984000
        13    1       21.869800000000       0.000000000000      20.467723287000
        14    1        2.733725000000      21.869800000000      23.201240166000
        15    1       21.869800000000       2.733725000000      23.201240166000
        16    1        2.733725000000       2.733725000000      20.467723287000
        17    2        1.366862500000       1.366862500000      21.834119863000
        18    2        4.100587500000       4.100587500000      24.568360469000
        19    2        1.366862500000       1.366862500000      24.568360469000
        20    2        4.100587500000       4.100587500000      21.834119863000
        21    2        4.100587500000       1.366862500000      24.568360469000
        22    2        1.366862500000       4.100587500000      21.834119863000
        23    2        4.100587500000       1.366862500000      21.834119863000
        24    2        1.366862500000       4.100587500000      24.568360469000
        25    1       21.869800000000       0.000000000000      25.934757045000
        26    1        2.733725000000      21.869800000000      28.668273924000
        27    1       21.869800000000       2.733725000000      28.668273924000
        28    1        2.733725000000       2.733725000000      25.934757045000
        29    2        1.366862500000       1.366862500000      27.301877348000
        30    2        4.100587500000       4.100587500000      30.035394227000
        31    2        1.366862500000       1.366862500000      30.035394227000
        32    2        4.100587500000       4.100587500000      27.301877348000
        33    2        4.100587500000       1.366862500000      30.035394227000
        34    2        1.366862500000       4.100587500000      27.301877348000
        35    2        4.100587500000       1.366862500000      27.301877348000
        36    2        1.366862500000       4.100587500000      30.035394227000
        37    1       21.869800000000       0.000000000000      31.402514530000
        38    1        2.733725000000      21.869800000000      34.136031409000
        39    1       21.869800000000       2.733725000000      34.136031409000
        40    1        2.733725000000       2.733725000000      31.402514530000
        41    2        1.366862500000       1.366862500000      32.768911106000
        42    2        4.100587500000       4.100587500000      35.503151712000
        43    2        1.366862500000       1.366862500000      35.503151712000
        44    2        4.100587500000       4.100587500000      32.768911106000
        45    2        4.100587500000       1.366862500000      35.503151712000
        46    2        1.366862500000       4.100587500000      32.768911106000
        47    2        4.100587500000       1.366862500000      32.768911106000
        48    2        1.366862500000       4.100587500000      35.503151712000
        49    1       21.869800000000      21.869800000000      36.869548288000
        50    1        2.733725000000       0.000000000000      39.603788894000
        51    1        0.000000000000       2.733725000000      39.603788894000
        52    1        2.733725000000       2.733725000000      36.869548288000
        53    2        1.366862500000       1.366862500000      38.236668591000
        54    2        4.100587500000       4.100587500000      40.970185470000
        55    2        1.366862500000       1.366862500000      40.970185470000
        56    2        4.100587500000       4.100587500000      38.236668591000
        57    2        4.100587500000       1.366862500000      40.970185470000
        58    2        1.366862500000       4.100587500000      38.236668591000
        59    2        4.100587500000       1.366862500000      38.236668591000
        60    2        1.366862500000       4.100587500000      40.970185470000
        61    1       21.869800000000       0.000000000000      42.337305773000
        62    1        2.733725000000      21.869800000000      45.070822652000
        63    1       21.869800000000       2.733725000000      45.070822652000
        64    1        2.733725000000       2.733725000000      42.337305773000
        65    2        1.366862500000       1.366862500000      43.704426076000
        66    2        4.100587500000       4.100587500000      46.437942955000
        67    2        1.366862500000       1.366862500000      46.437942955000
        68    2        4.100587500000       4.100587500000      43.704426076000
        69    2        4.100587500000       1.366862500000      46.437942955000
        70    2        1.366862500000       4.100587500000      43.704426076000
        71    2        4.100587500000       1.366862500000      43.704426076000
        72    2        1.366862500000       4.100587500000      46.437942955000
        73    1        0.000000000000       0.000000000000      47.804339531000
        74    1        2.733725000000       0.000000000000      50.538580137000
        75    1        0.000000000000       2.733725000000      50.538580137000
        76    1        2.733725000000       2.733725000000      47.804339531000
        77    2        1.366862500000       1.366862500000      49.171459834000
        78    2        4.100587500000       4.100587500000      51.904976713000
        79    2        1.366862500000       1.366862500000      51.904976713000
        80    2        4.100587500000       4.100587500000      49.171459834000
        81    2        4.100587500000       1.366862500000      51.904976713000
        82    2        1.366862500000       4.100587500000      49.171459834000
        83    2        4.100587500000       1.366862500000      49.171459834000
        84    2        1.366862500000       4.100587500000      51.904976713000
        85    1       21.869800000000      21.869800000000      53.272097016000
        86    1        2.733725000000       0.000000000000      56.005613895000
        87    1       21.869800000000       2.733725000000      56.005613895000
        88    1        2.733725000000       2.733725000000      53.272097016000
        89    2        1.366862500000       1.366862500000      54.639217319000
        90    2        4.100587500000       4.100587500000      57.372734198000
        91    2        1.366862500000       1.366862500000      57.372734198000
        92    2        4.100587500000       4.100587500000      54.639217319000
        93    2        4.100587500000       1.366862500000      57.372734198000
        94    2        1.366862500000       4.100587500000      54.639217319000
        95    2        4.100587500000       1.366862500000      54.639217319000
        96    2        1.366862500000       4.100587500000      57.372734198000
        97    1       21.869800000000       5.467450000000      14.999965802000
        98    1        2.733725000000       5.467450000000      17.733482681000
        99    1        0.000000000000       8.201175000000      17.733482681000
       100    1        2.733725000000       8.201175000000      14.999965802000
       101    2        1.366862500000       6.834312500000      16.367086105000
       102    2        4.100587500000       9.568037500000      19.100602984000
       103    2        1.366862500000       6.834312500000      19.100602984000
       104    2        4.100587500000       9.568037500000      16.367086105000
       105    2        4.100587500000       6.834312500000      19.100602984000
       106    2        1.366862500000       9.568037500000      16.367086105000
       107    2        4.100587500000       6.834312500000      16.367086105000
       108    2        1.366862500000       9.568037500000      19.100602984000
       109    1        0.000000000000       5.467450000000      20.467723287000
       110    1        2.733725000000       5.467450000000      23.201240166000
       111    1       21.869800000000       8.201175000000      23.201240166000
       112    1        2.733725000000       8.201175000000      20.467723287000
       113    2        1.366862500000       6.834312500000      21.834119863000
       114    2        4.100587500000       9.568037500000      24.568360469000
       115    2        1.366862500000       6.834312500000      24.568360469000
       116    2        4.100587500000       9.568037500000      21.834119863000
       117    2        4.100587500000       6.834312500000      24.568360469000
       118    2        1.366862500000       9.568037500000      21.834119863000
       119    2        4.100587500000       6.834312500000      21.834119863000
       120    2        1.366862500000       9.568037500000      24.568360469000
       121    1        0.000000000000       5.467450000000      25.934757045000
       122    1        2.733725000000       5.467450000000      28.668273924000
       123    1       21.869800000000       8.201175000000      28.668273924000
       124    1        2.733725000000       8.201175000000      25.934757045000
       125    2        1.366862500000       6.834312500000      27.301877348000
       126    2        4.100587500000       9.568037500000      30.035394227000
       127    2        1.366862500000       6.834312500000      30.035394227000
       128    2        4.100587500000       9.568037500000      27.301877348000
       129    2        4.100587500000       6.834312500000      30.035394227000
       130    2        1.366862500000       9.568037500000      27.301877348000
       131    2        4.100587500000       6.834312500000      27.301877348000
       132    2        1.366862500000       9.568037500000      30.035394227000
       133    1        0.000000000000       5.467450000000      31.402514530000
       134    1        2.733725000000       5.467450000000      34.136031409000
       135    1        0.000000000000       8.201175000000      34.136031409000
       136    1        2.733725000000       8.201175000000      31.402514530000
       137    2        1.366862500000       6.834312500000      32.768911106000
       138    2        4.100587500000       9.568037500000      35.503151712000
       139    2        1.366862500000       6.834312500000      35.503151712000
       140    2        4.100587500000       9.568037500000      32.768911106000
       141    2        4.100587500000       6.834312500000      35.503151712000
       142    2        1.366862500000       9.568037500000      32.768911106000
       143    2        4.100587500000       6.834312500000      32.768911106000
       144    2        1.366862500000       9.568037500000      35.503151712000
       145    1        0.000000000000       5.467450000000      36.869548288000
       146    1        2.733725000000       5.467450000000      39.603788894000
       147    1        0.000000000000       8.201175000000      39.603788894000
       148    1        2.733725000000       8.201175000000      36.869548288000
       149    2        1.366862500000       6.834312500000      38.236668591000
       150    2        4.100587500000       9.568037500000      40.970185470000
       151    2        1.366862500000       6.834312500000      40.970185470000
       152    2        4.100587500000       9.568037500000      38.236668591000
       153    2        4.100587500000       6.834312500000      40.970185470000
       154    2        1.366862500000       9.568037500000      38.236668591000
       155    2        4.100587500000       6.834312500000      38.236668591000
       156    2        1.366862500000       9.568037500000      40.970185470000
       157    1       21.869800000000       5.467450000000      42.337305773000
       158    1        2.733725000000       5.467450000000      45.070822652000
       159    1        0.000000000000       8.201175000000      45.070822652000
       160    1        2.733725000000       8.201175000000      42.337305773000
       161    2        1.366862500000       6.834312500000      43.704426076000
       162    2        4.100587500000       9.568037500000      46.437942955000
       163    2        1.366862500000       6.834312500000      46.437942955000
       164    2        4.100587500000       9.568037500000      43.704426076000
       165    2        4.100587500000       6.834312500000      46.437942955000
       166    2        1.366862500000       9.568037500000      43.704426076000
       167    2        4.100587500000       6.834312500000      43.704426076000
       168    2        1.366862500000       9.568037500000      46.437942955000
       169    1        0.000000000000       5.467450000000      47.804339531000
       170    1        2.733725000000       5.467450000000      50.538580137000
       171    1       21.869800000000       8.201175000000      50.538580137000
       172    1        2.733725000000       8.201175000000      47.804339531000
       173    2        1.366862500000       6.834312500000      49.171459834000
       174    2        4.100587500000       9.568037500000      51.904976713000
       175    2        1.366862500000       6.834312500000      51.904976713000
       176    2        4.100587500000       9.568037500000      49.171459834000
       177    2        4.100587500000       6.834312500000      51.904976713000
       178    2        1.366862500000       9.568037500000      49.171459834000
       179    2        4.100587500000       6.834312500000      49.171459834000
       180    2        1.366862500000       9.568037500000      51.904976713000
       181    1       21.869800000000       5.467450000000      53.272097016000
       182    1        2.733725000000       5.467450000000      56.005613895000
       183    1        0.000000000000       8.201175000000      56.005613895000
       184    1        2.733725000000       8.201175000000      53.272097016000
       185    2        1.366862500000       6.834312500000      54.639217319000
       186    2        4.100587500000       9.568037500000      57.372734198000
       187    2        1.366862500000       6.834312500000      57.372734198000
       188    2        4.100587500000       9.568037500000      54.639217319000
       189    2        4.100587500000       6.834312500000      57.372734198000
       190    2        1.366862500000       9.568037500000      54.639217319000
       191    2        4.100587500000       6.834312500000      54.639217319000
       192    2        1.366862500000       9.568037500000      57.372734198000
       193    1       21.869800000000      10.934900000000      14.999965802000
       194    1        2.733725000000      10.934900000000      17.733482681000
       195    1        0.000000000000      13.668625000000      17.733482681000
       196    1        2.733725000000      13.668625000000      14.999965802000
       197    2        1.366862500000      12.301762500000      16.367086105000
       198    2        4.100587500000      15.035487500000      19.100602984000
       199    2        1.366862500000      12.301762500000      19.100602984000
       200    2        4.100587500000      15.035487500000      16.367086105000
       201    2        4.100587500000      12.301762500000      19.100602984000
       202    2        1.366862500000      15.035487500000      16.367086105000
       203    2        4.100587500000      12.301762500000      16.367086105000
       204    2        1.366862500000      15.035487500000      19.100602984000
       205    1       21.869800000000      10.934900000000      20.467723287000
       206    1        2.733725000000      10.934900000000      23.201240166000
       207    1       21.869800000000      13.668625000000      23.201240166000
       208    1        2.733725000000      13.668625000000      20.467723287000
       209    2        1.366862500000      12.301762500000      21.834119863000
       210    2        4.100587500000      15.035487500000      24.568360469000
       211    2        1.366862500000      12.301762500000      24.568360469000
       212    2        4.100587500000      15.035487500000      21.834119863000
       213    2        4.100587500000      12.301762500000      24.568360469000
       214    2        1.366862500000      15.035487500000      21.834119863000
       215    2        4.100587500000      12.301762500000      21.834119863000
       216    2        1.366862500000      15.035487500000      24.568360469000
       217    1        0.000000000000      10.934900000000      25.934757045000
       218    1        2.733725000000      10.934900000000      28.668273924000
       219    1       21.869800000000      13.668625000000      28.668273924000
       220    1        2.733725000000      13.668625000000      25.934757045000
       221    2        1.366862500000      12.301762500000      27.301877348000
       222    2        4.100587500000      15.035487500000      30.035394227000
       223    2        1.366862500000      12.301762500000      30.035394227000
       224    2        4.100587500000      15.035487500000      27.301877348000
       225    2        4.100587500000      12.301762500000      30.035394227000
       226    2        1.366862500000      15.035487500000      27.301877348000
       227    2        4.100587500000      12.301762500000      27.301877348000
       228    2        1.366862500000      15.035487500000      30.035394227000
       229    1        0.000000000000      10.934900000000      31.402514530000
       230    1        2.733725000000      10.934900000000      34.136031409000
       231    1       21.869800000000      13.668625000000      34.136031409000
       232    1        2.733725000000      13.668625000000      31.402514530000
       233    2        1.366862500000      12.301762500000      32.768911106000
       234    2        4.100587500000      15.035487500000      35.503151712000
       235    2        1.366862500000      12.301762500000      35.503151712000
       236    2        4.100587500000      15.035487500000      32.768911106000
       237    2        4.100587500000      12.301762500000      35.503151712000
       238    2        1.366862500000      15.035487500000      32.768911106000
       239    2        4.100587500000      12.301762500000      32.768911106000
       240    2        1.366862500000      15.035487500000      35.503151712000
       241    1       21.869800000000      10.934900000000      36.869548288000
       242    1        2.733725000000      10.934900000000      39.603788894000
       243    1        0.000000000000      13.668625000000      39.603788894000
       244    1        2.733725000000      13.668625000000      36.869548288000
       245    2        1.366862500000      12.301762500000      38.236668591000
       246    2        4.100587500000      15.035487500000      40.970185470000
       247    2        1.366862500000      12.301762500000      40.970185470000
       248    2        4.100587500000      15.035487500000      38.236668591000
       249    2        4.100587500000      12.301762500000      40.970185470000
       250    2        1.366862500000      15.035487500000      38.236668591000
       251    2        4.100587500000      12.301762500000      38.236668591000
       252    2        1.366862500000      15.035487500000      40.970185470000
       253    1        0.000000000000      10.934900000000      42.337305773000
       254    1        2.733725000000      10.934900000000      45.070822652000
       255    1        0.000000000000      13.668625000000      45.070822652000
       256    1        2.733725000000      13.668625000000      42.337305773000
       257    2        1.366862500000      12.301762500000      43.704426076000
       258    2        4.100587500000      15.035487500000      46.437942955000
       259    2        1.366862500000      12.301762500000      46.437942955000
       260    2        4.100587500000      15.035487500000      43.704426076000
       261    2        4.100587500000      12.301762500000      46.437942955000
       262    2        1.366862500000      15.035487500000      43.704426076000
       263    2        4.100587500000      12.301762500000      43.704426076000
       264    2        1.366862500000      15.035487500000      46.437942955000
       265    1       21.869800000000      10.934900000000      47.804339531000
       266    1        2.733725000000      10.934900000000      50.538580137000
       267    1        0.000000000000      13.668625000000      50.538580137000
       268    1        2.733725000000      13.668625000000      47.804339531000
       269    2        1.366862500000      12.301762500000      49.171459834000
       270    2        4.100587500000      15.035487500000      51.904976713000
       271    2        1.366862500000      12.301762500000      51.904976713000
       272    2        4.100587500000      15.035487500000      49.171459834000
       273    2        4.100587500000      12.301762500000      51.904976713000
       274    2        1.366862500000      15.035487500000      49.171459834000
       275    2        4.100587500000      12.301762500000      49.171459834000
       276    2        1.366862500000      15.035487500000      51.904976713000
       277    1        0.000000000000      10.934900000000      53.272097016000
       278    1        2.733725000000      10.934900000000      56.005613895000
       279    1        0.000000000000      13.668625000000      56.005613895000
       280    1        2.733725000000      13.668625000000      53.272097016000
       281    2        1.366862500000      12.301762500000      54.639217319000
       282    2        4.100587500000      15.035487500000      57.372734198000
       283    2        1.366862500000      12.301762500000      57.372734198000
       284    2        4.100587500000      15.035487500000      54.639217319000
       285    2        4.100587500000      12.301762500000      57.372734198000
       286    2        1.366862500000      15.035487500000      54.639217319000
       287    2        4.100587500000      12.301762500000      54.639217319000
       288    2        1.366862500000      15.035487500000      57.372734198000
       289    1        0.000000000000      16.402350000000      14.999965802000
       290    1        2.733725000000      16.402350000000      17.733482681000
       291    1        0.000000000000      19.136075000000      17.733482681000
       292    1        2.733725000000      19.136075000000      14.999965802000
       293    2        1.366862500000      17.769212500000      16.367086105000
       294    2        4.100587500000      20.502937500000      19.100602984000
       295    2        1.366862500000      17.769212500000      19.100602984000
       296    2        4.100587500000      20.502937500000      16.367086105000
       297    2        4.100587500000      17.769212500000      19.100602984000
       298    2        1.366862500000      20.502937500000      16.367086105000
       299    2        4.100587500000      17.769212500000      16.367086105000
       300    2        1.366862500000      20.502937500000      19.100602984000
       301    1        0.000000000000      16.402350000000      20.467723287000
       302    1        2.733725000000      16.402350000000      23.201240166000
       303    1        0.000000000000      19.136075000000      23.201240166000
       304    1        2.733725000000      19.136075000000      20.467723287000
       305    2        1.366862500000      17.769212500000      21.834119863000
       306    2        4.100587500000      20.502937500000      24.568360469000
       307    2        1.366862500000      17.769212500000      24.568360469000
       308    2        4.100587500000      20.502937500000      21.834119863000
       309    2        4.100587500000      17.769212500000      24.568360469000
       310    2        1.366862500000      20.502937500000      21.834119863000
       311    2        4.100587500000      17.769212500000      21.834119863000
       312    2        1.366862500000      20.502937500000      24.568360469000
       313    1        0.000000000000      16.402350000000      25.934757045000
       314    1        2.733725000000      16.402350000000      28.668273924000
       315    1        0.000000000000      19.136075000000      28.668273924000
       316    1        2.733725000000      19.136075000000      25.934757045000
       317    2        1.366862500000      17.769212500000      27.301877348000
       318    2        4.100587500000      20.502937500000      30.035394227000
       319    2        1.366862500000      17.769212500000      30.035394227000
       320    2        4.100587500000      20.502937500000      27.301877348000
       321    2        4.100587500000      17.769212500000      30.035394227000
       322    2        1.366862500000      20.502937500000      27.301877348000
       323    2        4.100587500000      17.769212500000      27.301877348000
       324    2        1.366862500000      20.502937500000      30.035394227000
       325    1        0.000000000000      16.402350000000      31.402514530000
       326    1        2.733725000000      16.402350000000      34.136031409000
       327    1        0.000000000000      19.136075000000      34.136031409000
       328    1        2.733725000000      19.136075000000      31.402514530000
       329    2        1.366862500000      17.769212500000      32.768911106000
       330    2        4.100587500000      20.502937500000      35.503151712000
       331    2        1.366862500000      17.769212500000      35.503151712000
       332    2        4.100587500000      20.502937500000      32.768911106000
       333    2        4.100587500000      17.769212500000      35.503151712000
       334    2        1.366862500000      20.502937500000      32.768911106000
       335    2        4.100587500000      17.769212500000      32.768911106000
       336    2        1.366862500000      20.502937500000      35.503151712000
       337    1        0.000000000000      16.402350000000      36.869548288000
       338    1        2.733725000000      16.402350000000      39.603788894000
       339    1        0.000000000000      19.136075000000      39.603788894000
       340    1        2.733725000000      19.136075000000      36.869548288000
       341    2        1.366862500000      17.769212500000      38.236668591000
       342    2        4.100587500000      20.502937500000      40.970185470000
       343    2        1.366862500000      17.769212500000      40.970185470000
       344    2        4.100587500000      20.502937500000      38.236668591000
       345    2        4.100587500000      17.769212500000      40.970185470000
       346    2        1.366862500000      20.502937500000      38.236668591000
       347    2        4.100587500000      17.769212500000      38.236668591000
       348    2        1.366862500000      20.502937500000      40.970185470000
       349    1        0.000000000000      16.402350000000      42.337305773000
       350    1        2.733725000000      16.402350000000      45.070822652000
       351    1       21.869800000000      19.136075000000      45.070822652000
       352    1        2.733725000000      19.136075000000      42.337305773000
       353    2        1.366862500000      17.769212500000      43.704426076000
       354    2        4.100587500000      20.502937500000      46.437942955000
       355    2        1.366862500000      17.769212500000      46.437942955000
       356    2        4.100587500000      20.502937500000      43.704426076000
       357    2        4.100587500000      17.769212500000      46.437942955000
       358    2        1.366862500000      20.502937500000      43.704426076000
       359    2        4.100587500000      17.769212500000      43.704426076000
       360    2        1.366862500000      20.502937500000      46.437942955000
       361    1        0.000000000000      16.402350000000      47.804339531000
       362    1        2.733725000000      16.402350000000      50.538580137000
       363    1        0.000000000000      19.136075000000      50.538580137000
       364    1        2.733725000000      19.136075000000      47.804339531000
       365    2        1.366862500000      17.769212500000      49.171459834000
       366    2        4.100587500000      20.502937500000      51.904976713000
       367    2        1.366862500000      17.769212500000      51.904976713000
       368    2        4.100587500000      20.502937500000      49.171459834000
       369    2        4.100587500000      17.769212500000      51.904976713000
       370    2        1.366862500000      20.502937500000      49.171459834000