 # "Ce1248 O2496"
  
        3744  atoms
           2  atom types
 
      0.000000000000      30.928600000000  xlo xhi
      0.000000000000      21.869800000000  ylo yhi
      0.000000000000     105.388000000000  zlo zhi
 
Masses
 
            1   140.11600000            # Ce
            2   15.99900000             # O
 
Atoms # atomic
 
         1         1   4.0        0.000000000000       0.000000000000       14.999874040000
         2         1   4.0        3.866075000000       0.000000000000       14.999874040000
         3         1   4.0        1.933037500000       2.733725000000       16.932689960000
         4         1   4.0        5.799112500000       2.733725000000       16.932689960000
         5         2   -2.0        7.732150000000       4.100587500000       16.932689960000
         6         2   -2.0        3.866075000000       1.366862500000       16.932689960000
         7         2   -2.0        5.799112500000       4.100587500000       14.999874040000
         8         2   -2.0        1.933037500000       1.366862500000       14.999874040000
         9         2   -2.0        3.866075000000       4.100587500000       16.932689960000
         10         2   -2.0        7.732150000000       1.366862500000       16.932689960000
         11         2   -2.0        1.933037500000       4.100587500000       14.999874040000
         12         2   -2.0        5.799112500000       1.366862500000       14.999874040000
         13         1   4.0        3.866075000000       0.000000000000       18.865505880000
         14         1   4.0        7.732150000000       0.000000000000       18.865505880000
         15         1   4.0        5.799112500000       2.733725000000       20.799375680000
         16         1   4.0        1.933037500000       2.733725000000       20.799375680000
         17         2   -2.0        3.866075000000       4.100587500000       20.799375680000
         18         2   -2.0        7.732150000000       1.366862500000       20.799375680000
         19         2   -2.0        1.933037500000       4.100587500000       18.865505880000
         20         2   -2.0        5.799112500000       1.366862500000       18.865505880000
         21         2   -2.0        7.732150000000       4.100587500000       20.799375680000
         22         2   -2.0        3.866075000000       1.366862500000       20.799375680000
         23         2   -2.0        5.799112500000       4.100587500000       18.865505880000
         24         2   -2.0        1.933037500000       1.366862500000       18.865505880000
         25         1   4.0        7.732150000000       0.000000000000       22.732191600000
         26         1   4.0        3.866075000000       0.000000000000       22.732191600000
         27         1   4.0        1.933037500000       2.733725000000       24.665007520000
         28         1   4.0        5.799112500000       2.733725000000       24.665007520000
         29         2   -2.0        7.732150000000       4.100587500000       24.665007520000
         30         2   -2.0        3.866075000000       1.366862500000       24.665007520000
         31         2   -2.0        5.799112500000       4.100587500000       22.732191600000
         32         2   -2.0        1.933037500000       1.366862500000       22.732191600000
         33         2   -2.0        3.866075000000       4.100587500000       24.665007520000
         34         2   -2.0        7.732150000000       1.366862500000       24.665007520000
         35         2   -2.0        1.933037500000       4.100587500000       22.732191600000
         36         2   -2.0        5.799112500000       1.366862500000       22.732191600000
         37         1   4.0        3.866075000000       0.000000000000       26.597823440000
         38         1   4.0        7.732150000000       0.000000000000       26.597823440000
         39         1   4.0        5.799112500000       2.733725000000       28.530639360000
         40         1   4.0        1.933037500000       2.733725000000       28.530639360000
         41         2   -2.0        3.866075000000       4.100587500000       28.530639360000
         42         2   -2.0        7.732150000000       1.366862500000       28.530639360000
         43         2   -2.0        1.933037500000       4.100587500000       26.597823440000
         44         2   -2.0        5.799112500000       1.366862500000       26.597823440000
         45         2   -2.0        7.732150000000       4.100587500000       28.530639360000
         46         2   -2.0        3.866075000000       1.366862500000       28.530639360000
         47         2   -2.0        5.799112500000       4.100587500000       26.597823440000
         48         2   -2.0        1.933037500000       1.366862500000       26.597823440000
         49         1   4.0        7.732150000000       0.000000000000       30.464509160000
         50         1   4.0        3.866075000000       0.000000000000       30.464509160000
         51         1   4.0        1.933037500000       2.733725000000       32.397325080000
         52         1   4.0        5.799112500000       2.733725000000       32.397325080000
         53         2   -2.0        7.732150000000       4.100587500000       32.397325080000
         54         2   -2.0        3.866075000000       1.366862500000       32.397325080000
         55         2   -2.0        5.799112500000       4.100587500000       30.464509160000
         56         2   -2.0        1.933037500000       1.366862500000       30.464509160000
         57         2   -2.0        3.866075000000       4.100587500000       32.397325080000
         58         2   -2.0        7.732150000000       1.366862500000       32.397325080000
         59         2   -2.0        1.933037500000       4.100587500000       30.464509160000
         60         2   -2.0        5.799112500000       1.366862500000       30.464509160000
         61         1   4.0        3.866075000000       0.000000000000       34.330141000000
         62         1   4.0        7.732150000000       0.000000000000       34.330141000000
         63         1   4.0        5.799112500000       2.733725000000       36.262956920000
         64         1   4.0        1.933037500000       2.733725000000       36.262956920000
         65         2   -2.0        3.866075000000       4.100587500000       36.262956920000
         66         2   -2.0        7.732150000000       1.366862500000       36.262956920000
         67         2   -2.0        1.933037500000       4.100587500000       34.330141000000
         68         2   -2.0        5.799112500000       1.366862500000       34.330141000000
         69         2   -2.0        7.732150000000       4.100587500000       36.262956920000
         70         2   -2.0        3.866075000000       1.366862500000       36.262956920000
         71         2   -2.0        5.799112500000       4.100587500000       34.330141000000
         72         2   -2.0        1.933037500000       1.366862500000       34.330141000000
         73         1   4.0        7.732150000000       0.000000000000       38.195772840000
         74         1   4.0        3.866075000000       0.000000000000       38.195772840000
         75         1   4.0        1.933037500000       2.733725000000       40.129642640000
         76         1   4.0        5.799112500000       2.733725000000       40.129642640000
         77         2   -2.0        7.732150000000       4.100587500000       40.129642640000
         78         2   -2.0        3.866075000000       1.366862500000       40.129642640000
         79         2   -2.0        5.799112500000       4.100587500000       38.195772840000
         80         2   -2.0        1.933037500000       1.366862500000       38.195772840000
         81         2   -2.0        3.866075000000       4.100587500000       40.129642640000
         82         2   -2.0        7.732150000000       1.366862500000       40.129642640000
         83         2   -2.0        1.933037500000       4.100587500000       38.195772840000
         84         2   -2.0        5.799112500000       1.366862500000       38.195772840000
         85         1   4.0        3.866075000000       0.000000000000       42.062458560000
         86         1   4.0        7.732150000000       0.000000000000       42.062458560000
         87         1   4.0        5.799112500000       2.733725000000       43.995274480000
         88         1   4.0        1.933037500000       2.733725000000       43.995274480000
         89         2   -2.0        3.866075000000       4.100587500000       43.995274480000
         90         2   -2.0        7.732150000000       1.366862500000       43.995274480000
         91         2   -2.0        1.933037500000       4.100587500000       42.062458560000
         92         2   -2.0        5.799112500000       1.366862500000       42.062458560000
         93         2   -2.0        7.732150000000       4.100587500000       43.995274480000
         94         2   -2.0        3.866075000000       1.366862500000       43.995274480000
         95         2   -2.0        5.799112500000       4.100587500000       42.062458560000
         96         2   -2.0        1.933037500000       1.366862500000       42.062458560000
         97         1   4.0        7.732150000000       0.000000000000       45.928090400000
         98         1   4.0        3.866075000000       0.000000000000       45.928090400000
         99         1   4.0        1.933037500000       2.733725000000       47.860906320000
         100         1   4.0        5.799112500000       2.733725000000       47.860906320000
         101         2   -2.0        7.732150000000       4.100587500000       47.860906320000
         102         2   -2.0        3.866075000000       1.366862500000       47.860906320000
         103         2   -2.0        5.799112500000       4.100587500000       45.928090400000
         104         2   -2.0        1.933037500000       1.366862500000       45.928090400000
         105         2   -2.0        3.866075000000       4.100587500000       47.860906320000
         106         2   -2.0        7.732150000000       1.366862500000       47.860906320000
         107         2   -2.0        1.933037500000       4.100587500000       45.928090400000
         108         2   -2.0        5.799112500000       1.366862500000       45.928090400000
         109         1   4.0        3.866075000000       0.000000000000       49.794776120000
         110         1   4.0        7.732150000000       0.000000000000       49.794776120000
         111         1   4.0        5.799112500000       2.733725000000       51.727592040000
         112         1   4.0        1.933037500000       2.733725000000       51.727592040000
         113         2   -2.0        3.866075000000       4.100587500000       51.727592040000
         114         2   -2.0        7.732150000000       1.366862500000       51.727592040000
         115         2   -2.0        1.933037500000       4.100587500000       49.794776120000
         116         2   -2.0        5.799112500000       1.366862500000       49.794776120000
         117         2   -2.0        7.732150000000       4.100587500000       51.727592040000
         118         2   -2.0        3.866075000000       1.366862500000       51.727592040000
         119         2   -2.0        5.799112500000       4.100587500000       49.794776120000
         120         2   -2.0        1.933037500000       1.366862500000       49.794776120000
         121         1   4.0        7.732150000000       0.000000000000       53.660407960000
         122         1   4.0        3.866075000000       0.000000000000       53.660407960000
         123         1   4.0        1.933037500000       2.733725000000       55.593223880000
         124         1   4.0        5.799112500000       2.733725000000       55.593223880000
         125         2   -2.0        7.732150000000       4.100587500000       55.593223880000
         126         2   -2.0        3.866075000000       1.366862500000       55.593223880000
         127         2   -2.0        5.799112500000       4.100587500000       53.660407960000
         128         2   -2.0        1.933037500000       1.366862500000       53.660407960000
         129         2   -2.0        3.866075000000       4.100587500000       55.593223880000
         130         2   -2.0        7.732150000000       1.366862500000       55.593223880000
         131         2   -2.0        1.933037500000       4.100587500000       53.660407960000
         132         2   -2.0        5.799112500000       1.366862500000       53.660407960000
         133         1   4.0        3.866075000000       0.000000000000       57.527093680000
         134         1   4.0        7.732150000000       0.000000000000       57.527093680000
         135         1   4.0        5.799112500000       2.733725000000       59.459909600000
         136         1   4.0        1.933037500000       2.733725000000       59.459909600000
         137         2   -2.0        3.866075000000       4.100587500000       59.459909600000
         138         2   -2.0        7.732150000000       1.366862500000       59.459909600000
         139         2   -2.0        1.933037500000       4.100587500000       57.527093680000
         140         2   -2.0        5.799112500000       1.366862500000       57.527093680000
         141         2   -2.0        7.732150000000       4.100587500000       59.459909600000
         142         2   -2.0        3.866075000000       1.366862500000       59.459909600000
         143         2   -2.0        5.799112500000       4.100587500000       57.527093680000
         144         2   -2.0        1.933037500000       1.366862500000       57.527093680000
         145         1   4.0        7.732150000000       0.000000000000       61.392725520000
         146         1   4.0        3.866075000000       0.000000000000       61.392725520000
         147         1   4.0        1.933037500000       2.733725000000       63.325541440000
         148         1   4.0        5.799112500000       2.733725000000       63.325541440000
         149         2   -2.0        7.732150000000       4.100587500000       63.325541440000
         150         2   -2.0        3.866075000000       1.366862500000       63.325541440000
         151         2   -2.0        5.799112500000       4.100587500000       61.392725520000
         152         2   -2.0        1.933037500000       1.366862500000       61.392725520000
         153         2   -2.0        3.866075000000       4.100587500000       63.325541440000
         154         2   -2.0        7.732150000000       1.366862500000       63.325541440000
         155         2   -2.0        1.933037500000       4.100587500000       61.392725520000
         156         2   -2.0        5.799112500000       1.366862500000       61.392725520000
         157         1   4.0        3.866075000000       0.000000000000       65.258357360000
         158         1   4.0        7.732150000000       0.000000000000       65.258357360000
         159         1   4.0        5.799112500000       2.733725000000       67.192227160000
         160         1   4.0        1.933037500000       2.733725000000       67.192227160000
         161         2   -2.0        3.866075000000       4.100587500000       67.192227160000
         162         2   -2.0        7.732150000000       1.366862500000       67.192227160000
         163         2   -2.0        1.933037500000       4.100587500000       65.258357360000
         164         2   -2.0        5.799112500000       1.366862500000       65.258357360000
         165         2   -2.0        7.732150000000       4.100587500000       67.192227160000
         166         2   -2.0        3.866075000000       1.366862500000       67.192227160000
         167         2   -2.0        5.799112500000       4.100587500000       65.258357360000
         168         2   -2.0        1.933037500000       1.366862500000       65.258357360000
         169         1   4.0        7.732150000000       0.000000000000       69.125043080000
         170         1   4.0        3.866075000000       0.000000000000       69.125043080000
         171         1   4.0        1.933037500000       2.733725000000       71.057859000000
         172         1   4.0        5.799112500000       2.733725000000       71.057859000000
         173         2   -2.0        7.732150000000       4.100587500000       71.057859000000
         174         2   -2.0        3.866075000000       1.366862500000       71.057859000000
         175         2   -2.0        5.799112500000       4.100587500000       69.125043080000
         176         2   -2.0        1.933037500000       1.366862500000       69.125043080000
         177         2   -2.0        3.866075000000       4.100587500000       71.057859000000
         178         2   -2.0        7.732150000000       1.366862500000       71.057859000000
         179         2   -2.0        1.933037500000       4.100587500000       69.125043080000
         180         2   -2.0        5.799112500000       1.366862500000       69.125043080000
         181         1   4.0        3.866075000000       0.000000000000       72.990674920000
         182         1   4.0        7.732150000000       0.000000000000       72.990674920000
         183         1   4.0        5.799112500000       2.733725000000       74.923490840000
         184         1   4.0        1.933037500000       2.733725000000       74.923490840000
         185         2   -2.0        3.866075000000       4.100587500000       74.923490840000
         186         2   -2.0        7.732150000000       1.366862500000       74.923490840000
         187         2   -2.0        1.933037500000       4.100587500000       72.990674920000
         188         2   -2.0        5.799112500000       1.366862500000       72.990674920000
         189         2   -2.0        7.732150000000       4.100587500000       74.923490840000
         190         2   -2.0        3.866075000000       1.366862500000       74.923490840000
         191         2   -2.0        5.799112500000       4.100587500000       72.990674920000
         192         2   -2.0        1.933037500000       1.366862500000       72.990674920000
         193         1   4.0        7.732150000000       0.000000000000       76.857360640000
         194         1   4.0        3.866075000000       0.000000000000       76.857360640000
         195         1   4.0        1.933037500000       2.733725000000       78.790176560000
         196         1   4.0        5.799112500000       2.733725000000       78.790176560000
         197         2   -2.0        7.732150000000       4.100587500000       78.790176560000
         198         2   -2.0        3.866075000000       1.366862500000       78.790176560000
         199         2   -2.0        5.799112500000       4.100587500000       76.857360640000
         200         2   -2.0        1.933037500000       1.366862500000       76.857360640000
         201         2   -2.0        3.866075000000       4.100587500000       78.790176560000
         202         2   -2.0        7.732150000000       1.366862500000       78.790176560000
         203         2   -2.0        1.933037500000       4.100587500000       76.857360640000
         204         2   -2.0        5.799112500000       1.366862500000       76.857360640000
         205         1   4.0        3.866075000000       0.000000000000       80.722992480000
         206         1   4.0        7.732150000000       0.000000000000       80.722992480000
         207         1   4.0        5.799112500000       2.733725000000       82.655808400000
         208         1   4.0        1.933037500000       2.733725000000       82.655808400000
         209         2   -2.0        3.866075000000       4.100587500000       82.655808400000
         210         2   -2.0        7.732150000000       1.366862500000       82.655808400000
         211         2   -2.0        1.933037500000       4.100587500000       80.722992480000
         212         2   -2.0        5.799112500000       1.366862500000       80.722992480000
         213         2   -2.0        7.732150000000       4.100587500000       82.655808400000
         214         2   -2.0        3.866075000000       1.366862500000       82.655808400000
         215         2   -2.0        5.799112500000       4.100587500000       80.722992480000
         216         2   -2.0        1.933037500000       1.366862500000       80.722992480000
         217         1   4.0        7.732150000000       0.000000000000       84.588624320000
         218         1   4.0        3.866075000000       0.000000000000       84.588624320000
         219         1   4.0        1.933037500000       2.733725000000       86.522494120000
         220         1   4.0        5.799112500000       2.733725000000       86.522494120000
         221         2   -2.0        7.732150000000       4.100587500000       86.522494120000
         222         2   -2.0        3.866075000000       1.366862500000       86.522494120000
         223         2   -2.0        5.799112500000       4.100587500000       84.588624320000
         224         2   -2.0        1.933037500000       1.366862500000       84.588624320000
         225         2   -2.0        3.866075000000       4.100587500000       86.522494120000
         226         2   -2.0        7.732150000000       1.366862500000       86.522494120000
         227         2   -2.0        1.933037500000       4.100587500000       84.588624320000
         228         2   -2.0        5.799112500000       1.366862500000       84.588624320000
         229         1   4.0        3.866075000000       0.000000000000       88.455310040000
         230         1   4.0        7.732150000000       0.000000000000       88.455310040000
         231         2   -2.0        1.933037500000       4.100587500000       88.455310040000
         232         2   -2.0        5.799112500000       1.366862500000       88.455310040000
         233         2   -2.0        5.799112500000       4.100587500000       88.455310040000
         234         2   -2.0        1.933037500000       1.366862500000       88.455310040000
         235         1   4.0        0.000000000000       5.467450000000       14.999874040000
         236         1   4.0        3.866075000000       5.467450000000       14.999874040000
         237         1   4.0        1.933037500000       8.201175000000       16.932689960000
         238         1   4.0        5.799112500000       8.201175000000       16.932689960000
         239         2   -2.0        7.732150000000       9.568037500000       16.932689960000
         240         2   -2.0        3.866075000000       6.834312500000       16.932689960000
         241         2   -2.0        5.799112500000       9.568037500000       14.999874040000
         242         2   -2.0        1.933037500000       6.834312500000       14.999874040000
         243         2   -2.0        3.866075000000       9.568037500000       16.932689960000
         244         2   -2.0        7.732150000000       6.834312500000       16.932689960000
         245         2   -2.0        1.933037500000       9.568037500000       14.999874040000
         246         2   -2.0        5.799112500000       6.834312500000       14.999874040000
         247         1   4.0        3.866075000000       5.467450000000       18.865505880000
         248         1   4.0        7.732150000000       5.467450000000       18.865505880000
         249         1   4.0        5.799112500000       8.201175000000       20.799375680000
         250         1   4.0        1.933037500000       8.201175000000       20.799375680000
         251         2   -2.0        3.866075000000       9.568037500000       20.799375680000
         252         2   -2.0        7.732150000000       6.834312500000       20.799375680000
         253         2   -2.0        1.933037500000       9.568037500000       18.865505880000
         254         2   -2.0        5.799112500000       6.834312500000       18.865505880000
         255         2   -2.0        7.732150000000       9.568037500000       20.799375680000
         256         2   -2.0        3.866075000000       6.834312500000       20.799375680000
         257         2   -2.0        5.799112500000       9.568037500000       18.865505880000
         258         2   -2.0        1.933037500000       6.834312500000       18.865505880000
         259         1   4.0        7.732150000000       5.467450000000       22.732191600000
         260         1   4.0        3.866075000000       5.467450000000       22.732191600000
         261         1   4.0        1.933037500000       8.201175000000       24.665007520000
         262         1   4.0        5.799112500000       8.201175000000       24.665007520000
         263         2   -2.0        7.732150000000       9.568037500000       24.665007520000
         264         2   -2.0        3.866075000000       6.834312500000       24.665007520000
         265         2   -2.0        5.799112500000       9.568037500000       22.732191600000
         266         2   -2.0        1.933037500000       6.834312500000       22.732191600000
         267         2   -2.0        3.866075000000       9.568037500000       24.665007520000
         268         2   -2.0        7.732150000000       6.834312500000       24.665007520000
         269         2   -2.0        1.933037500000       9.568037500000       22.732191600000
         270         2   -2.0        5.799112500000       6.834312500000       22.732191600000
         271         1   4.0        3.866075000000       5.467450000000       26.597823440000
         272         1   4.0        7.732150000000       5.467450000000       26.597823440000
         273         1   4.0        5.799112500000       8.201175000000       28.530639360000
         274         1   4.0        1.933037500000       8.201175000000       28.530639360000
         275         2   -2.0        3.866075000000       9.568037500000       28.530639360000
         276         2   -2.0        7.732150000000       6.834312500000       28.530639360000
         277         2   -2.0        1.933037500000       9.568037500000       26.597823440000
         278         2   -2.0        5.799112500000       6.834312500000       26.597823440000
         279         2   -2.0        7.732150000000       9.568037500000       28.530639360000
         280         2   -2.0        3.866075000000       6.834312500000       28.530639360000
         281         2   -2.0        5.799112500000       9.568037500000       26.597823440000
         282         2   -2.0        1.933037500000       6.834312500000       26.597823440000
         283         1   4.0        7.732150000000       5.467450000000       30.464509160000
         284         1   4.0        3.866075000000       5.467450000000       30.464509160000
         285         1   4.0        1.933037500000       8.201175000000       32.397325080000
         286         1   4.0        5.799112500000       8.201175000000       32.397325080000
         287         2   -2.0        7.732150000000       9.568037500000       32.397325080000
         288         2   -2.0        3.866075000000       6.834312500000       32.397325080000
         289         2   -2.0        5.799112500000       9.568037500000       30.464509160000
         290         2   -2.0        1.933037500000       6.834312500000       30.464509160000
         291         2   -2.0        3.866075000000       9.568037500000       32.397325080000
         292         2   -2.0        7.732150000000       6.834312500000       32.397325080000
         293         2   -2.0        1.933037500000       9.568037500000       30.464509160000
         294         2   -2.0        5.799112500000       6.834312500000       30.464509160000
         295         1   4.0        3.866075000000       5.467450000000       34.330141000000
         296         1   4.0        7.732150000000       5.467450000000       34.330141000000
         297         1   4.0        5.799112500000       8.201175000000       36.262956920000
         298         1   4.0        1.933037500000       8.201175000000       36.262956920000
         299         2   -2.0        3.866075000000       9.568037500000       36.262956920000
         300         2   -2.0        7.732150000000       6.834312500000       36.262956920000
         301         2   -2.0        1.933037500000       9.568037500000       34.330141000000
         302         2   -2.0        5.799112500000       6.834312500000       34.330141000000
         303         2   -2.0        7.732150000000       9.568037500000       36.262956920000
         304         2   -2.0        3.866075000000       6.834312500000       36.262956920000
         305         2   -2.0        5.799112500000       9.568037500000       34.330141000000
         306         2   -2.0        1.933037500000       6.834312500000       34.330141000000
         307         1   4.0        7.732150000000       5.467450000000       38.195772840000
         308         1   4.0        3.866075000000       5.467450000000       38.195772840000
         309         1   4.0        1.933037500000       8.201175000000       40.129642640000
         310         1   4.0        5.799112500000       8.201175000000       40.129642640000
         311         2   -2.0        7.732150000000       9.568037500000       40.129642640000
         312         2   -2.0        3.866075000000       6.834312500000       40.129642640000
         313         2   -2.0        5.799112500000       9.568037500000       38.195772840000
         314         2   -2.0        1.933037500000       6.834312500000       38.195772840000