 # "Ce56 O112"
  
         168  atoms
           2  atom types
 
      0.000000000000       7.732140000000  xlo xhi
      0.000000000000       6.696229665618  ylo yhi
      0.000000000000      73.403700000000  zlo zhi
      3.866070000000       0.000000000000       0.000000000000  xy xz yz
 
Masses
 
            1   140.11600000            # Ce
            2   15.99900000             # O
 
Atoms # atomic
 
         1         1   4.0        0.000000000000       0.000000000000       15.000046095000
         2         1   4.0        5.799105000000       3.348114832809       15.000046095000
         3         1   4.0        3.866070000000       0.000000000000       15.000046095000
         4         1   4.0        9.665175000000       3.348114832809       15.000046095000
         5         2   -2.0        7.732140000000       0.000000000000       17.367315420000
         6         2   -2.0        7.732178660700       4.464175431177       15.789135870000
         7         2   -2.0        5.799143660700       1.116060598369       15.789135870000
         8         2   -2.0        9.665175000000       3.348114832809       17.367315420000
         9         2   -2.0        5.799105000000       3.348114832809       17.367315420000
         10         2   -2.0        1.933073660700       1.116060598369       15.789135870000
         11         2   -2.0        3.866108660700       4.464175431177       15.789135870000
         12         2   -2.0        3.866070000000       0.000000000000       17.367315420000
         13         1   4.0        7.732178660700       4.464175431177       18.156405195000
         14         1   4.0        1.933073660700       1.116060598369       18.156405195000
         15         1   4.0        3.866108660700       4.464175431177       18.156405195000
         16         1   4.0        5.799143660700       1.116060598369       18.156405195000
         17         2   -2.0        7.732178660700       4.464175431177       20.524408557000
         18         2   -2.0        3.866031339300       2.232054234440       18.945494970000
         19         2   -2.0        5.799066339300       5.580169067249       18.945494970000
         20         2   -2.0        5.799143660700       1.116060598369       20.524408557000
         21         2   -2.0        1.933073660700       1.116060598369       20.524408557000
         22         2   -2.0        9.665136339300       5.580169067249       18.945494970000
         23         2   -2.0        7.732101339300       2.232054234440       18.945494970000
         24         2   -2.0        3.866108660700       4.464175431177       20.524408557000
         25         1   4.0        3.866031339300       2.232054234440       21.313498332000
         26         1   4.0        9.665136339300       5.580169067249       21.313498332000
         27         1   4.0        7.732101339300       2.232054234440       21.313498332000
         28         1   4.0        5.799066339300       5.580169067249       21.313498332000
         29         2   -2.0        3.866031339300       2.232054234440       23.680767657000
         30         2   -2.0        0.000000000000       0.000000000000       22.102588107000
         31         2   -2.0        9.665175000000       3.348114832809       22.102588107000
         32         2   -2.0        5.799066339300       5.580169067249       23.680767657000
         33         2   -2.0        9.665136339300       5.580169067249       23.680767657000
         34         2   -2.0        5.799105000000       3.348114832809       22.102588107000
         35         2   -2.0        3.866070000000       0.000000000000       22.102588107000
         36         2   -2.0        7.732101339300       2.232054234440       23.680767657000
         37         1   4.0        7.732140000000       0.000000000000       24.469857432000
         38         1   4.0        5.799105000000       3.348114832809       24.469857432000
         39         1   4.0        3.866070000000       0.000000000000       24.469857432000
         40         1   4.0        9.665175000000       3.348114832809       24.469857432000
         41         2   -2.0        7.732140000000       0.000000000000       26.837126757000
         42         2   -2.0        7.732178660700       4.464175431177       25.258947207000
         43         2   -2.0        5.799143660700       1.116060598369       25.258947207000
         44         2   -2.0        1.933035000000       3.348114832809       26.837126757000
         45         2   -2.0        5.799105000000       3.348114832809       26.837126757000
         46         2   -2.0        1.933073660700       1.116060598369       25.258947207000
         47         2   -2.0        3.866108660700       4.464175431177       25.258947207000
         48         2   -2.0        3.866070000000       0.000000000000       26.837126757000
         49         1   4.0        7.732178660700       4.464175431177       27.626216532000
         50         1   4.0        1.933073660700       1.116060598369       27.626216532000
         51         1   4.0        3.866108660700       4.464175431177       27.626216532000
         52         1   4.0        5.799143660700       1.116060598369       27.626216532000
         53         2   -2.0        7.732178660700       4.464175431177       29.994219894000
         54         2   -2.0        3.866031339300       2.232054234440       28.416040344000
         55         2   -2.0        5.799066339300       5.580169067249       28.416040344000
         56         2   -2.0        5.799143660700       1.116060598369       29.994219894000
         57         2   -2.0        1.933073660700       1.116060598369       29.994219894000
         58         2   -2.0        9.665136339300       5.580169067249       28.416040344000
         59         2   -2.0        7.732101339300       2.232054234440       28.416040344000
         60         2   -2.0        3.866108660700       4.464175431177       29.994219894000
         61         1   4.0        3.866031339300       2.232054234440       30.783309669000
         62         1   4.0        9.665136339300       5.580169067249       30.783309669000
         63         1   4.0        7.732101339300       2.232054234440       30.783309669000
         64         1   4.0        5.799066339300       5.580169067249       30.783309669000
         65         2   -2.0        3.866031339300       2.232054234440       33.150578994000
         66         2   -2.0        7.732140000000       0.000000000000       31.572399444000
         67         2   -2.0        9.665175000000       3.348114832809       31.572399444000
         68         2   -2.0        5.799066339300       5.580169067249       33.150578994000
         69         2   -2.0        9.665136339300       5.580169067249       33.150578994000
         70         2   -2.0        5.799105000000       3.348114832809       31.572399444000
         71         2   -2.0        3.866070000000       0.000000000000       31.572399444000
         72         2   -2.0        7.732101339300       2.232054234440       33.150578994000
         73         1   4.0        7.732140000000       0.000000000000       33.939668769000
         74         1   4.0        5.799105000000       3.348114832809       33.939668769000
         75         1   4.0        3.866070000000       0.000000000000       33.939668769000
         76         1   4.0        9.665175000000       3.348114832809       33.939668769000
         77         2   -2.0        7.732140000000       0.000000000000       36.306938094000
         78         2   -2.0        7.732178660700       4.464175431177       34.728758544000
         79         2   -2.0        5.799143660700       1.116060598369       34.728758544000
         80         2   -2.0        9.665175000000       3.348114832809       36.306938094000
         81         2   -2.0        5.799105000000       3.348114832809       36.306938094000
         82         2   -2.0        1.933073660700       1.116060598369       34.728758544000
         83         2   -2.0        3.866108660700       4.464175431177       34.728758544000
         84         2   -2.0        3.866070000000       0.000000000000       36.306938094000
         85         1   4.0        7.732178660700       4.464175431177       37.096761906000
         86         1   4.0        1.933073660700       1.116060598369       37.096761906000
         87         1   4.0        3.866108660700       4.464175431177       37.096761906000
         88         1   4.0        5.799143660700       1.116060598369       37.096761906000
         89         2   -2.0        7.732178660700       4.464175431177       39.464031231000
         90         2   -2.0        3.866031339300       2.232054234440       37.885851681000
         91         2   -2.0        5.799066339300       5.580169067249       37.885851681000
         92         2   -2.0        5.799143660700       1.116060598369       39.464031231000
         93         2   -2.0        1.933073660700       1.116060598369       39.464031231000
         94         2   -2.0        9.665136339300       5.580169067249       37.885851681000
         95         2   -2.0        7.732101339300       2.232054234440       37.885851681000
         96         2   -2.0        3.866108660700       4.464175431177       39.464031231000
         97         1   4.0        3.866031339300       2.232054234440       40.253121006000
         98         1   4.0        9.665136339300       5.580169067249       40.253121006000
         99         1   4.0        7.732101339300       2.232054234440       40.253121006000
         100         1   4.0        5.799066339300       5.580169067249       40.253121006000
         101         2   -2.0        3.866031339300       2.232054234440       42.620390331000
         102         2   -2.0        7.732140000000       0.000000000000       41.042210781000
         103         2   -2.0        9.665175000000       3.348114832809       41.042210781000
         104         2   -2.0        5.799066339300       5.580169067249       42.620390331000
         105         2   -2.0        9.665136339300       5.580169067249       42.620390331000
         106         2   -2.0        5.799105000000       3.348114832809       41.042210781000
         107         2   -2.0        3.866070000000       0.000000000000       41.042210781000
         108         2   -2.0        7.732101339300       2.232054234440       42.620390331000
         109         1   4.0        7.732140000000       0.000000000000       43.409480106000
         110         1   4.0        5.799105000000       3.348114832809       43.409480106000
         111         1   4.0        3.866070000000       0.000000000000       43.409480106000
         112         1   4.0        9.665175000000       3.348114832809       43.409480106000
         113         2   -2.0        7.732140000000       0.000000000000       45.777483468000
         114         2   -2.0        7.732178660700       4.464175431177       44.198569881000
         115         2   -2.0        5.799143660700       1.116060598369       44.198569881000
         116         2   -2.0        9.665175000000       3.348114832809       45.777483468000
         117         2   -2.0        5.799105000000       3.348114832809       45.777483468000
         118         2   -2.0        1.933073660700       1.116060598369       44.198569881000
         119         2   -2.0        3.866108660700       4.464175431177       44.198569881000
         120         2   -2.0        3.866070000000       0.000000000000       45.777483468000
         121         1   4.0        7.732178660700       4.464175431177       46.566573243000
         122         1   4.0        1.933073660700       1.116060598369       46.566573243000
         123         1   4.0        3.866108660700       4.464175431177       46.566573243000
         124         1   4.0        5.799143660700       1.116060598369       46.566573243000
         125         2   -2.0        7.732178660700       4.464175431177       48.933842568000
         126         2   -2.0        3.866031339300       2.232054234440       47.355663018000
         127         2   -2.0        5.799066339300       5.580169067249       47.355663018000
         128         2   -2.0        5.799143660700       1.116060598369       48.933842568000
         129         2   -2.0        1.933073660700       1.116060598369       48.933842568000
         130         2   -2.0        9.665136339300       5.580169067249       47.355663018000
         131         2   -2.0        7.732101339300       2.232054234440       47.355663018000
         132         2   -2.0        3.866108660700       4.464175431177       48.933842568000
         133         1   4.0        3.866031339300       2.232054234440       49.722932343000
         134         1   4.0        9.665136339300       5.580169067249       49.722932343000
         135         1   4.0        7.732101339300       2.232054234440       49.722932343000
         136         1   4.0        5.799066339300       5.580169067249       49.722932343000
         137         2   -2.0        3.866031339300       2.232054234440       52.090201668000
         138         2   -2.0        7.732140000000       0.000000000000       50.512022118000
         139         2   -2.0        9.665175000000       3.348114832809       50.512022118000
         140         2   -2.0        5.799066339300       5.580169067249       52.090201668000
         141         2   -2.0        9.665136339300       5.580169067249       52.090201668000
         142         2   -2.0        5.799105000000       3.348114832809       50.512022118000
         143         2   -2.0        3.866070000000       0.000000000000       50.512022118000
         144         2   -2.0        7.732101339300       2.232054234440       52.090201668000
         145         1   4.0        0.000000000000       0.000000000000       52.879291443000
         146         1   4.0        5.799105000000       3.348114832809       52.879291443000
         147         1   4.0        3.866070000000       0.000000000000       52.879291443000
         148         1   4.0        9.665175000000       3.348114832809       52.879291443000
         149         2   -2.0        7.732140000000       0.000000000000       55.247294805000
         150         2   -2.0        7.732178660700       4.464175431177       53.669115255000
         151         2   -2.0        5.799143660700       1.116060598369       53.669115255000
         152         2   -2.0        1.933035000000       3.348114832809       55.247294805000
         153         2   -2.0        5.799105000000       3.348114832809       55.247294805000
         154         2   -2.0        1.933073660700       1.116060598369       53.669115255000
         155         2   -2.0        3.866108660700       4.464175431177       53.669115255000
         156         2   -2.0        3.866070000000       0.000000000000       55.247294805000
         157         1   4.0        7.732178660700       4.464175431177       56.036384580000
         158         1   4.0        1.933073660700       1.116060598369       56.036384580000
         159         1   4.0        3.866108660700       4.464175431177       56.036384580000
         160         1   4.0        5.799143660700       1.116060598369       56.036384580000
         161         2   -2.0        7.732178660700       4.464175431177       58.403653905000
         162         2   -2.0        3.866031339300       2.232054234440       56.825474355000
         163         2   -2.0        5.799066339300       5.580169067249       56.825474355000
         164         2   -2.0        5.799143660700       1.116060598369       58.403653905000
         165         2   -2.0        1.933073660700       1.116060598369       58.403653905000
         166         2   -2.0        9.665136339300       5.580169067249       56.825474355000
         167         2   -2.0        7.732101339300       2.232054234440       56.825474355000
         168         2   -2.0        3.866108660700       4.464175431177       58.403653905000
