 # "Ce896 O1792"
  
        2688  atoms
           2  atom types
 
      0.000000000000      30.928600000000  xlo xhi
      0.000000000000      26.784953303487  ylo yhi
      0.000000000000      73.403700000000  zlo zhi
     15.464300000000       0.000000000000       0.000000000000  xy xz yz
 
Masses
 
            1   140.11600000            # Ce
            2   15.99900000             # O
 
Atoms # atomic
 
         1    1       15.464300000000      26.784953303487      15.000046095000
         2    1        5.799112500000       3.348119162936      15.000046095000
         3    1       19.330375000000      26.784953303487      15.000046095000
         4    1        1.933037500000       3.348119162936      15.000046095000
         5    2       23.196450000000      26.784953303487      17.367315420000
         6    2        7.732304643000       4.464248167092      15.789135870000
         7    2        5.799267143000       1.116129004156      15.789135870000
         8    2        9.665187500000       3.348119162936      17.367315420000
         9    2        5.799112500000       3.348119162936      17.367315420000
        10    2        1.933192143000       1.116129004156      15.789135870000
        11    2        3.866229643000       4.464248167092      15.789135870000
        12    2       19.330375000000      26.784953303487      17.367315420000
        13    1        7.732304643000       4.464248167092      18.156405195000
        14    1        1.933192143000       1.116129004156      18.156405195000
        15    1        3.866229643000       4.464248167092      18.156405195000
        16    1        5.799267143000       1.116129004156      18.156405195000
        17    2        7.732304643000       4.464248167092      20.524408557000
        18    2        3.865920357000       2.231990158780      18.945494970000
        19    2        5.798957857000       5.580109321716      18.945494970000
        20    2        5.799267143000       1.116129004156      20.524408557000
        21    2        1.933192143000       1.116129004156      20.524408557000
        22    2        9.665032857000       5.580109321716      18.945494970000
        23    2        7.731995357000       2.231990158780      18.945494970000
        24    2        3.866229643000       4.464248167092      20.524408557000
        25    1        3.865920357000       2.231990158780      21.313498332000
        26    1        9.665032857000       5.580109321716      21.313498332000
        27    1        7.731995357000       2.231990158780      21.313498332000
        28    1        5.798957857000       5.580109321716      21.313498332000
        29    2        3.865920357000       2.231990158780      23.680767657000
        30    2       23.196450000000      26.784953303487      22.102588107000
        31    2        9.665187500000       3.348119162936      22.102588107000
        32    2        5.798957857000       5.580109321716      23.680767657000
        33    2        9.665032857000       5.580109321716      23.680767657000
        34    2        5.799112500000       3.348119162936      22.102588107000
        35    2       19.330375000000      26.784953303487      22.102588107000
        36    2        7.731995357000       2.231990158780      23.680767657000
        37    1       23.196450000000      26.784953303487      24.469857432000
        38    1        5.799112500000       3.348119162936      24.469857432000
        39    1       19.330375000000      26.784953303487      24.469857432000
        40    1        9.665187500000       3.348119162936      24.469857432000
        41    2       11.598225000000       6.696238325872      26.837126757000
        42    2        7.732304643000       4.464248167092      25.258947207000
        43    2        5.799267143000       1.116129004156      25.258947207000
        44    2        9.665187500000       3.348119162936      26.837126757000
        45    2        5.799112500000       3.348119162936      26.837126757000
        46    2        1.933192143000       1.116129004156      25.258947207000
        47    2        3.866229643000       4.464248167092      25.258947207000
        48    2       19.330375000000      26.784953303487      26.837126757000
        49    1        7.732304643000       4.464248167092      27.626216532000
        50    1        1.933192143000       1.116129004156      27.626216532000
        51    1        3.866229643000       4.464248167092      27.626216532000
        52    1        5.799267143000       1.116129004156      27.626216532000
        53    2        7.732304643000       4.464248167092      29.994219894000
        54    2        3.865920357000       2.231990158780      28.416040344000
        55    2        5.798957857000       5.580109321716      28.416040344000
        56    2        5.799267143000       1.116129004156      29.994219894000
        57    2        1.933192143000       1.116129004156      29.994219894000
        58    2        9.665032857000       5.580109321716      28.416040344000
        59    2        7.731995357000       2.231990158780      28.416040344000
        60    2        3.866229643000       4.464248167092      29.994219894000
        61    1        3.865920357000       2.231990158780      30.783309669000
        62    1        9.665032857000       5.580109321716      30.783309669000
        63    1        7.731995357000       2.231990158780      30.783309669000
        64    1        5.798957857000       5.580109321716      30.783309669000
        65    2        3.865920357000       2.231990158780      33.150578994000
        66    2       11.598225000000       6.696238325872      31.572399444000
        67    2        9.665187500000       3.348119162936      31.572399444000
        68    2        5.798957857000       5.580109321716      33.150578994000
        69    2        9.665032857000       5.580109321716      33.150578994000
        70    2        5.799112500000       3.348119162936      31.572399444000
        71    2        7.732150000000       6.696238325872      31.572399444000
        72    2        7.731995357000       2.231990158780      33.150578994000
        73    1       23.196450000000      26.784953303487      33.939668769000
        74    1        5.799112500000       3.348119162936      33.939668769000
        75    1        7.732150000000       6.696238325872      33.939668769000
        76    1        9.665187500000       3.348119162936      33.939668769000
        77    2       11.598225000000       6.696238325872      36.306938094000
        78    2        7.732304643000       4.464248167092      34.728758544000
        79    2        5.799267143000       1.116129004156      34.728758544000
        80    2        9.665187500000       3.348119162936      36.306938094000
        81    2        5.799112500000       3.348119162936      36.306938094000
        82    2        1.933192143000       1.116129004156      34.728758544000
        83    2        3.866229643000       4.464248167092      34.728758544000
        84    2       19.330375000000      26.784953303487      36.306938094000
        85    1        7.732304643000       4.464248167092      37.096761906000
        86    1        1.933192143000       1.116129004156      37.096761906000
        87    1        3.866229643000       4.464248167092      37.096761906000
        88    1        5.799267143000       1.116129004156      37.096761906000
        89    2        7.732304643000       4.464248167092      39.464031231000
        90    2        3.865920357000       2.231990158780      37.885851681000
        91    2        5.798957857000       5.580109321716      37.885851681000
        92    2        5.799267143000       1.116129004156      39.464031231000
        93    2        1.933192143000       1.116129004156      39.464031231000
        94    2        9.665032857000       5.580109321716      37.885851681000
        95    2        7.731995357000       2.231990158780      37.885851681000
        96    2        3.866229643000       4.464248167092      39.464031231000
        97    1        3.865920357000       2.231990158780      40.253121006000
        98    1        9.665032857000       5.580109321716      40.253121006000
        99    1        7.731995357000       2.231990158780      40.253121006000
       100    1        5.798957857000       5.580109321716      40.253121006000
       101    2        3.865920357000       2.231990158780      42.620390331000
       102    2       23.196450000000      26.784953303487      41.042210781000
       103    2        9.665187500000       3.348119162936      41.042210781000
       104    2        5.798957857000       5.580109321716      42.620390331000
       105    2        9.665032857000       5.580109321716      42.620390331000
       106    2        5.799112500000       3.348119162936      41.042210781000
       107    2        7.732150000000       6.696238325872      41.042210781000
       108    2        7.731995357000       2.231990158780      42.620390331000
       109    1       23.196450000000      26.784953303487      43.409480106000
       110    1        5.799112500000       3.348119162936      43.409480106000
       111    1       19.330375000000      26.784953303487      43.409480106000
       112    1        9.665187500000       3.348119162936      43.409480106000
       113    2       23.196450000000      26.784953303487      45.777483468000
       114    2        7.732304643000       4.464248167092      44.198569881000
       115    2        5.799267143000       1.116129004156      44.198569881000
       116    2        9.665187500000       3.348119162936      45.777483468000
       117    2        5.799112500000       3.348119162936      45.777483468000
       118    2        1.933192143000       1.116129004156      44.198569881000
       119    2        3.866229643000       4.464248167092      44.198569881000
       120    2       19.330375000000      26.784953303487      45.777483468000
       121    1        7.732304643000       4.464248167092      46.566573243000
       122    1        1.933192143000       1.116129004156      46.566573243000
       123    1        3.866229643000       4.464248167092      46.566573243000
       124    1        5.799267143000       1.116129004156      46.566573243000
       125    2        7.732304643000       4.464248167092      48.933842568000
       126    2        3.865920357000       2.231990158780      47.355663018000
       127    2        5.798957857000       5.580109321716      47.355663018000
       128    2        5.799267143000       1.116129004156      48.933842568000
       129    2        1.933192143000       1.116129004156      48.933842568000
       130    2        9.665032857000       5.580109321716      47.355663018000
       131    2        7.731995357000       2.231990158780      47.355663018000
       132    2        3.866229643000       4.464248167092      48.933842568000
       133    1        3.865920357000       2.231990158780      49.722932343000
       134    1        9.665032857000       5.580109321716      49.722932343000
       135    1        7.731995357000       2.231990158780      49.722932343000
       136    1        5.798957857000       5.580109321716      49.722932343000
       137    2        3.865920357000       2.231990158780      52.090201668000
       138    2       11.598225000000       6.696238325872      50.512022118000
       139    2        9.665187500000       3.348119162936      50.512022118000
       140    2        5.798957857000       5.580109321716      52.090201668000
       141    2        9.665032857000       5.580109321716      52.090201668000
       142    2        5.799112500000       3.348119162936      50.512022118000
       143    2        7.732150000000       6.696238325872      50.512022118000
       144    2        7.731995357000       2.231990158780      52.090201668000
       145    1       23.196450000000      26.784953303487      52.879291443000
       146    1        5.799112500000       3.348119162936      52.879291443000
       147    1       19.330375000000      26.784953303487      52.879291443000
       148    1        9.665187500000       3.348119162936      52.879291443000
       149    2       23.196450000000      26.784953303487      55.247294805000
       150    2        7.732304643000       4.464248167092      53.669115255000
       151    2        5.799267143000       1.116129004156      53.669115255000
       152    2        9.665187500000       3.348119162936      55.247294805000
       153    2        5.799112500000       3.348119162936      55.247294805000
       154    2        1.933192143000       1.116129004156      53.669115255000
       155    2        3.866229643000       4.464248167092      53.669115255000
       156    2       19.330375000000      26.784953303487      55.247294805000
       157    1        7.732304643000       4.464248167092      56.036384580000
       158    1        1.933192143000       1.116129004156      56.036384580000
       159    1        3.866229643000       4.464248167092      56.036384580000
       160    1        5.799267143000       1.116129004156      56.036384580000
       161    2        7.732304643000       4.464248167092      58.403653905000
       162    2        3.865920357000       2.231990158780      56.825474355000
       163    2        5.798957857000       5.580109321716      56.825474355000
       164    2        5.799267143000       1.116129004156      58.403653905000
       165    2        1.933192143000       1.116129004156      58.403653905000
       166    2        9.665032857000       5.580109321716      56.825474355000
       167    2        7.731995357000       2.231990158780      56.825474355000
       168    2        3.866229643000       4.464248167092      58.403653905000
       169    1       34.794675000000       6.696238325872      15.000046095000
       170    1        9.665187500000      10.044357488808      15.000046095000
       171    1        7.732150000000       6.696238325872      15.000046095000
       172    1        5.799112500000      10.044357488808      15.000046095000
       173    2       11.598225000000       6.696238325872      17.367315420000
       174    2       11.598379643000      11.160486492964      15.789135870000
       175    2        9.665342143000       7.812367330028      15.789135870000
       176    2       13.531262500000      10.044357488808      17.367315420000
       177    2        9.665187500000      10.044357488808      17.367315420000
       178    2        5.799267143000       7.812367330028      15.789135870000
       179    2        7.732304643000      11.160486492964      15.789135870000
       180    2        7.732150000000       6.696238325872      17.367315420000
       181    1       11.598379643000      11.160486492964      18.156405195000
       182    1        5.799267143000       7.812367330028      18.156405195000
       183    1        7.732304643000      11.160486492964      18.156405195000
       184    1        9.665342143000       7.812367330028      18.156405195000
       185    2       11.598379643000      11.160486492964      20.524408557000
       186    2        7.731995357000       8.928228484651      18.945494970000
       187    2        9.665032857000      12.276347647587      18.945494970000
       188    2        9.665342143000       7.812367330028      20.524408557000
       189    2        5.799267143000       7.812367330028      20.524408557000
       190    2       13.531107857000      12.276347647587      18.945494970000
       191    2       11.598070357000       8.928228484651      18.945494970000
       192    2        7.732304643000      11.160486492964      20.524408557000
       193    1        7.731995357000       8.928228484651      21.313498332000
       194    1       13.531107857000      12.276347647587      21.313498332000
       195    1       11.598070357000       8.928228484651      21.313498332000
       196    1        9.665032857000      12.276347647587      21.313498332000
       197    2        7.731995357000       8.928228484651      23.680767657000
       198    2       11.598225000000       6.696238325872      22.102588107000
       199    2       13.531262500000      10.044357488808      22.102588107000
       200    2        9.665032857000      12.276347647587      23.680767657000
       201    2       13.531107857000      12.276347647587      23.680767657000
       202    2        9.665187500000      10.044357488808      22.102588107000
       203    2        7.732150000000       6.696238325872      22.102588107000
       204    2       11.598070357000       8.928228484651      23.680767657000
       205    1       11.598225000000       6.696238325872      24.469857432000
       206    1        9.665187500000      10.044357488808      24.469857432000
       207    1        7.732150000000       6.696238325872      24.469857432000
       208    1       13.531262500000      10.044357488808      24.469857432000
       209    2       15.464300000000      13.392476651744      26.837126757000
       210    2       11.598379643000      11.160486492964      25.258947207000
       211    2        9.665342143000       7.812367330028      25.258947207000
       212    2       13.531262500000      10.044357488808      26.837126757000
       213    2        9.665187500000      10.044357488808      26.837126757000
       214    2        5.799267143000       7.812367330028      25.258947207000
       215    2        7.732304643000      11.160486492964      25.258947207000
       216    2        7.732150000000       6.696238325872      26.837126757000
       217    1       11.598379643000      11.160486492964      27.626216532000
       218    1        5.799267143000       7.812367330028      27.626216532000
       219    1        7.732304643000      11.160486492964      27.626216532000
       220    1        9.665342143000       7.812367330028      27.626216532000
       221    2       11.598379643000      11.160486492964      29.994219894000
       222    2        7.731995357000       8.928228484651      28.416040344000
       223    2        9.665032857000      12.276347647587      28.416040344000
       224    2        9.665342143000       7.812367330028      29.994219894000
       225    2        5.799267143000       7.812367330028      29.994219894000
       226    2       13.531107857000      12.276347647587      28.416040344000
       227    2       11.598070357000       8.928228484651      28.416040344000
       228    2        7.732304643000      11.160486492964      29.994219894000
       229    1        7.731995357000       8.928228484651      30.783309669000
       230    1       13.531107857000      12.276347647587      30.783309669000
       231    1       11.598070357000       8.928228484651      30.783309669000
       232    1        9.665032857000      12.276347647587      30.783309669000
       233    2        7.731995357000       8.928228484651      33.150578994000
       234    2       15.464300000000      13.392476651744      31.572399444000
       235    2       13.531262500000      10.044357488808      31.572399444000
       236    2        9.665032857000      12.276347647587      33.150578994000
       237    2       13.531107857000      12.276347647587      33.150578994000
       238    2        9.665187500000      10.044357488808      31.572399444000
       239    2       11.598225000000      13.392476651744      31.572399444000
       240    2       11.598070357000       8.928228484651      33.150578994000
       241    1       11.598225000000       6.696238325872      33.939668769000
       242    1        9.665187500000      10.044357488808      33.939668769000
       243    1       11.598225000000      13.392476651744      33.939668769000
       244    1       13.531262500000      10.044357488808      33.939668769000
       245    2       15.464300000000      13.392476651744      36.306938094000
       246    2       11.598379643000      11.160486492964      34.728758544000
       247    2        9.665342143000       7.812367330028      34.728758544000
       248    2       13.531262500000      10.044357488808      36.306938094000
       249    2        9.665187500000      10.044357488808      36.306938094000
       250    2        5.799267143000       7.812367330028      34.728758544000
       251    2        7.732304643000      11.160486492964      34.728758544000
       252    2        7.732150000000       6.696238325872      36.306938094000
       253    1       11.598379643000      11.160486492964      37.096761906000
       254    1        5.799267143000       7.812367330028      37.096761906000
       255    1        7.732304643000      11.160486492964      37.096761906000
       256    1        9.665342143000       7.812367330028      37.096761906000
       257    2       11.598379643000      11.160486492964      39.464031231000
       258    2        7.731995357000       8.928228484651      37.885851681000
       259    2        9.665032857000      12.276347647587      37.885851681000
       260    2        9.665342143000       7.812367330028      39.464031231000
       261    2        5.799267143000       7.812367330028      39.464031231000
       262    2       13.531107857000      12.276347647587      37.885851681000
       263    2       11.598070357000       8.928228484651      37.885851681000
       264    2        7.732304643000      11.160486492964      39.464031231000
       265    1        7.731995357000       8.928228484651      40.253121006000
       266    1       13.531107857000      12.276347647587      40.253121006000
       267    1       11.598070357000       8.928228484651      40.253121006000
       268    1        9.665032857000      12.276347647587      40.253121006000
       269    2        7.731995357000       8.928228484651      42.620390331000
       270    2       11.598225000000       6.696238325872      41.042210781000
       271    2       13.531262500000      10.044357488808      41.042210781000
       272    2        9.665032857000      12.276347647587      42.620390331000
       273    2       13.531107857000      12.276347647587      42.620390331000
       274    2        9.665187500000      10.044357488808      41.042210781000
       275    2       11.598225000000      13.392476651744      41.042210781000
       276    2       11.598070357000       8.928228484651      42.620390331000
       277    1       11.598225000000       6.696238325872      43.409480106000
       278    1        9.665187500000      10.044357488808      43.409480106000
       279    1        7.732150000000       6.696238325872      43.409480106000
       280    1       13.531262500000      10.044357488808      43.409480106000
       281    2       11.598225000000       6.696238325872      45.777483468000
       282    2       11.598379643000      11.160486492964      44.198569881000
       283    2        9.665342143000       7.812367330028      44.198569881000
       284    2       13.531262500000      10.044357488808      45.777483468000
       285    2        9.665187500000      10.044357488808      45.777483468000
       286    2        5.799267143000       7.812367330028      44.198569881000
       287    2        7.732304643000      11.160486492964      44.198569881000
       288    2        7.732150000000       6.696238325872      45.777483468000
       289    1       11.598379643000      11.160486492964      46.566573243000
       290    1        5.799267143000       7.812367330028      46.566573243000
       291    1        7.732304643000      11.160486492964      46.566573243000
       292    1        9.665342143000       7.812367330028      46.566573243000
       293    2       11.598379643000      11.160486492964      48.933842568000
       294    2        7.731995357000       8.928228484651      47.355663018000
       295    2        9.665032857000      12.276347647587      47.355663018000
       296    2        9.665342143000       7.812367330028      48.933842568000
       297    2        5.799267143000       7.812367330028      48.933842568000
       298    2       13.531107857000      12.276347647587      47.355663018000
       299    2       11.598070357000       8.928228484651      47.355663018000
       300    2        7.732304643000      11.160486492964      48.933842568000
       301    1        7.731995357000       8.928228484651      49.722932343000
       302    1       13.531107857000      12.276347647587      49.722932343000
       303    1       11.598070357000       8.928228484651      49.722932343000
       304    1        9.665032857000      12.276347647587      49.722932343000
       305    2        7.731995357000       8.928228484651      52.090201668000
       306    2       15.464300000000      13.392476651744      50.512022118000
       307    2       13.531262500000      10.044357488808      50.512022118000
       308    2        9.665032857000      12.276347647587      52.090201668000
       309    2       13.531107857000      12.276347647587      52.090201668000
       310    2        9.665187500000      10.044357488808      50.512022118000
       311    2       11.598225000000      13.392476651744      50.512022118000
       312    2       11.598070357000       8.928228484651      52.090201668000
       313    1       11.598225000000       6.696238325872      52.879291443000
       314    1        9.665187500000      10.044357488808      52.879291443000
       315    1        7.732150000000       6.696238325872      52.879291443000
       316    1       13.531262500000      10.044357488808      52.879291443000
       317    2       11.598225000000       6.696238325872      55.247294805000
       318    2       11.598379643000      11.160486492964      53.669115255000
       319    2        9.665342143000       7.812367330028      53.669115255000
       320    2       13.531262500000      10.044357488808      55.247294805000
       321    2        9.665187500000      10.044357488808      55.247294805000
       322    2        5.799267143000       7.812367330028      53.669115255000
       323    2        7.732304643000      11.160486492964      53.669115255000
       324    2        7.732150000000       6.696238325872      55.247294805000
       325    1       11.598379643000      11.160486492964      56.036384580000
       326    1        5.799267143000       7.812367330028      56.036384580000
       327    1        7.732304643000      11.160486492964      56.036384580000
       328    1        9.665342143000       7.812367330028      56.036384580000
       329    2       11.598379643000      11.160486492964      58.403653905000
       330    2        7.731995357000       8.928228484651      56.825474355000
       331    2        9.665032857000      12.276347647587      56.825474355000
       332    2        9.665342143000       7.812367330028      58.403653905000
       333    2        5.799267143000       7.812367330028      58.403653905000
       334    2       13.531107857000      12.276347647587      56.825474355000
       335    2       11.598070357000       8.928228484651      56.825474355000
       336    2        7.732304643000      11.160486492964      58.403653905000
       337    1        7.732150000000      13.392476651744      15.000046095000
       338    1       13.531262500000      16.740595814680      15.000046095000
       339    1       11.598225000000      13.392476651744      15.000046095000
       340    1        9.665187500000      16.740595814680      15.000046095000
       341    2       15.464300000000      13.392476651744      17.367315420000
       342    2       15.464454643000      17.856724818836      15.789135870000
       343    2       13.531417143000      14.508605655900      15.789135870000
       344    2       17.397337500000      16.740595814680      17.367315420000
       345    2       13.531262500000      16.740595814680      17.367315420000
       346    2        9.665342143000      14.508605655900      15.789135870000
       347    2       11.598379643000      17.856724818836      15.789135870000
       348    2       11.598225000000      13.392476651744      17.367315420000
       349    1       15.464454643000      17.856724818836      18.156405195000
       350    1        9.665342143000      14.508605655900      18.156405195000
       351    1       11.598379643000      17.856724818836      18.156405195000
       352    1       13.531417143000      14.508605655900      18.156405195000
       353    2       15.464454643000      17.856724818836      20.524408557000
       354    2       11.598070357000      15.624466810523      18.945494970000
       355    2       13.531107857000      18.972585973459      18.945494970000
       356    2       13.531417143000      14.508605655900      20.524408557000
       357    2        9.665342143000      14.508605655900      20.524408557000
       358    2       17.397182857000      18.972585973459      18.945494970000
       359    2       15.464145357000      15.624466810523      18.945494970000
       360    2       11.598379643000      17.856724818836      20.524408557000
       361    1       11.598070357000      15.624466810523      21.313498332000
       362    1       17.397182857000      18.972585973459      21.313498332000
       363    1       15.464145357000      15.624466810523      21.313498332000
       364    1       13.531107857000      18.972585973459      21.313498332000
       365    2       11.598070357000      15.624466810523      23.680767657000
       366    2       15.464300000000      13.392476651744      22.102588107000
       367    2       17.397337500000      16.740595814680      22.102588107000
       368    2       13.531107857000      18.972585973459      23.680767657000
       369    2       17.397182857000      18.972585973459      23.680767657000