 # "O1792 Ce896"
  
        2688  atoms
           2  atom types
 
      0.000000000000      30.928600000000  xlo xhi
      0.000000000000      26.784953303487  ylo yhi
      0.000000000000      79.717000000000  zlo zhi
     15.464300000000       0.000000000000       0.000000000000  xy xz yz
 
Masses
 
            1   15.99900000             # O
            2   140.11600000            # Ce
 
Atoms # atomic
 
         1         1   4.0        7.732304643000       4.464248167092       20.523938820000
         2         1   4.0        5.799267143000       1.116129004156       20.523938820000
         3         1   4.0        1.933192143000       1.116129004156       20.523938820000
         4         1   4.0        3.866229643000       4.464248167092       20.523938820000
         5         2   -2.0        3.865920357000       2.231990158780       21.313137120000
         6         2   -2.0        9.665032857000       5.580109321716       21.313137120000
         7         2   -2.0        7.731995357000       2.231990158780       21.313137120000
         8         2   -2.0        5.798957857000       5.580109321716       21.313137120000
         9         1   4.0        3.865920357000       2.231990158780       23.680732020000
         10         1   4.0        3.866075000000       6.696238325872       22.102335420000
         11         1   4.0        32.861637500000       3.348119162936       22.102335420000
         12         1   4.0        5.798957857000       5.580109321716       23.680732020000
         13         1   4.0        9.665032857000       5.580109321716       23.680732020000
         14         1   4.0        5.799112500000       3.348119162936       22.102335420000
         15         1   4.0        7.732150000000       6.696238325872       22.102335420000
         16         1   4.0        7.731995357000       2.231990158780       23.680732020000
         17         2   -2.0        34.794675000000       6.696238325872       24.469930320000
         18         2   -2.0        5.799112500000       3.348119162936       24.469930320000
         19         2   -2.0        7.732150000000       6.696238325872       24.469930320000
         20         2   -2.0        1.933037500000       3.348119162936       24.469930320000
         21         1   4.0        3.866075000000       6.696238325872       26.837525220000
         22         1   4.0        7.732304643000       4.464248167092       25.259128620000
         23         1   4.0        5.799267143000       1.116129004156       25.259128620000
         24         1   4.0        1.933037500000       3.348119162936       26.837525220000
         25         1   4.0        5.799112500000       3.348119162936       26.837525220000
         26         1   4.0        1.933192143000       1.116129004156       25.259128620000
         27         1   4.0        3.866229643000       4.464248167092       25.259128620000
         28         1   4.0        7.732150000000       6.696238325872       26.837525220000
         29         2   -2.0        7.732304643000       4.464248167092       27.626723520000
         30         2   -2.0        1.933192143000       1.116129004156       27.626723520000
         31         2   -2.0        3.866229643000       4.464248167092       27.626723520000
         32         2   -2.0        5.799267143000       1.116129004156       27.626723520000
         33         1   4.0        7.732304643000       4.464248167092       29.994318420000
         34         1   4.0        3.865920357000       2.231990158780       28.415921820000
         35         1   4.0        5.798957857000       5.580109321716       28.415921820000
         36         1   4.0        5.799267143000       1.116129004156       29.994318420000
         37         1   4.0        1.933192143000       1.116129004156       29.994318420000
         38         1   4.0        9.665032857000       5.580109321716       28.415921820000
         39         1   4.0        7.731995357000       2.231990158780       28.415921820000
         40         1   4.0        3.866229643000       4.464248167092       29.994318420000
         41         2   -2.0        3.865920357000       2.231990158780       30.783516720000
         42         2   -2.0        9.665032857000       5.580109321716       30.783516720000
         43         2   -2.0        7.731995357000       2.231990158780       30.783516720000
         44         2   -2.0        5.798957857000       5.580109321716       30.783516720000
         45         1   4.0        3.865920357000       2.231990158780       33.150314450000
         46         1   4.0        3.866075000000       6.696238325872       31.572715020000
         47         1   4.0        1.933037500000       3.348119162936       31.572715020000
         48         1   4.0        5.798957857000       5.580109321716       33.150314450000
         49         1   4.0        9.665032857000       5.580109321716       33.150314450000
         50         1   4.0        5.799112500000       3.348119162936       31.572715020000
         51         1   4.0        7.732150000000       6.696238325872       31.572715020000
         52         1   4.0        7.731995357000       2.231990158780       33.150314450000
         53         2   -2.0        3.866075000000       6.696238325872       33.939512750000
         54         2   -2.0        5.799112500000       3.348119162936       33.939512750000
         55         2   -2.0        7.732150000000       6.696238325872       33.939512750000
         56         2   -2.0        32.861637500000       3.348119162936       33.939512750000
         57         1   4.0        3.866075000000       6.696238325872       36.307107650000
         58         1   4.0        7.732304643000       4.464248167092       34.728711050000
         59         1   4.0        5.799267143000       1.116129004156       34.728711050000
         60         1   4.0        1.933037500000       3.348119162936       36.307107650000
         61         1   4.0        5.799112500000       3.348119162936       36.307107650000
         62         1   4.0        1.933192143000       1.116129004156       34.728711050000
         63         1   4.0        3.866229643000       4.464248167092       34.728711050000
         64         1   4.0        7.732150000000       6.696238325872       36.307107650000
         65         2   -2.0        7.732304643000       4.464248167092       37.096305950000
         66         2   -2.0        1.933192143000       1.116129004156       37.096305950000
         67         2   -2.0        3.866229643000       4.464248167092       37.096305950000
         68         2   -2.0        5.799267143000       1.116129004156       37.096305950000
         69         1   4.0        7.732304643000       4.464248167092       39.463900850000
         70         1   4.0        3.865920357000       2.231990158780       37.885504250000
         71         1   4.0        5.798957857000       5.580109321716       37.885504250000
         72         1   4.0        5.799267143000       1.116129004156       39.463900850000
         73         1   4.0        1.933192143000       1.116129004156       39.463900850000
         74         1   4.0        9.665032857000       5.580109321716       37.885504250000
         75         1   4.0        7.731995357000       2.231990158780       37.885504250000
         76         1   4.0        3.866229643000       4.464248167092       39.463900850000
         77         2   -2.0        3.865920357000       2.231990158780       40.253099150000
         78         2   -2.0        9.665032857000       5.580109321716       40.253099150000
         79         2   -2.0        7.731995357000       2.231990158780       40.253099150000
         80         2   -2.0        5.798957857000       5.580109321716       40.253099150000
         81         1   4.0        3.865920357000       2.231990158780       42.620694050000
         82         1   4.0        3.866075000000       6.696238325872       41.042297450000
         83         1   4.0        1.933037500000       3.348119162936       41.042297450000
         84         1   4.0        5.798957857000       5.580109321716       42.620694050000
         85         1   4.0        9.665032857000       5.580109321716       42.620694050000
         86         1   4.0        5.799112500000       3.348119162936       41.042297450000
         87         1   4.0        7.732150000000       6.696238325872       41.042297450000
         88         1   4.0        7.731995357000       2.231990158780       42.620694050000
         89         2   -2.0        34.794675000000       6.696238325872       43.409892350000
         90         2   -2.0        5.799112500000       3.348119162936       43.409892350000
         91         2   -2.0        7.732150000000       6.696238325872       43.409892350000
         92         2   -2.0        1.933037500000       3.348119162936       43.409892350000
         93         1   4.0        34.794675000000       6.696238325872       45.777487250000
         94         1   4.0        7.732304643000       4.464248167092       44.199090650000
         95         1   4.0        5.799267143000       1.116129004156       44.199090650000
         96         1   4.0        1.933037500000       3.348119162936       45.777487250000
         97         1   4.0        5.799112500000       3.348119162936       45.777487250000
         98         1   4.0        1.933192143000       1.116129004156       44.199090650000
         99         1   4.0        3.866229643000       4.464248167092       44.199090650000
         100         1   4.0        7.732150000000       6.696238325872       45.777487250000
         101         2   -2.0        7.732304643000       4.464248167092       46.566685550000
         102         2   -2.0        1.933192143000       1.116129004156       46.566685550000
         103         2   -2.0        3.866229643000       4.464248167092       46.566685550000
         104         2   -2.0        5.799267143000       1.116129004156       46.566685550000
         105         1   4.0        7.732304643000       4.464248167092       48.933483280000
         106         1   4.0        3.865920357000       2.231990158780       47.355883850000
         107         1   4.0        5.798957857000       5.580109321716       47.355883850000
         108         1   4.0        5.799267143000       1.116129004156       48.933483280000
         109         1   4.0        1.933192143000       1.116129004156       48.933483280000
         110         1   4.0        9.665032857000       5.580109321716       47.355883850000
         111         1   4.0        7.731995357000       2.231990158780       47.355883850000
         112         1   4.0        3.866229643000       4.464248167092       48.933483280000
         113         2   -2.0        3.865920357000       2.231990158780       49.722681580000
         114         2   -2.0        9.665032857000       5.580109321716       49.722681580000
         115         2   -2.0        7.731995357000       2.231990158780       49.722681580000
         116         2   -2.0        5.798957857000       5.580109321716       49.722681580000
         117         1   4.0        3.865920357000       2.231990158780       52.090276480000
         118         1   4.0        3.866075000000       6.696238325872       50.511879880000
         119         1   4.0        1.933037500000       3.348119162936       50.511879880000
         120         1   4.0        5.798957857000       5.580109321716       52.090276480000
         121         1   4.0        9.665032857000       5.580109321716       52.090276480000
         122         1   4.0        5.799112500000       3.348119162936       50.511879880000
         123         1   4.0        7.732150000000       6.696238325872       50.511879880000
         124         1   4.0        7.731995357000       2.231990158780       52.090276480000
         125         2   -2.0        3.866075000000       6.696238325872       52.879474780000
         126         2   -2.0        5.799112500000       3.348119162936       52.879474780000
         127         2   -2.0        7.732150000000       6.696238325872       52.879474780000
         128         2   -2.0        1.933037500000       3.348119162936       52.879474780000
         129         1   4.0        3.866075000000       6.696238325872       55.247069680000
         130         1   4.0        7.732304643000       4.464248167092       53.668673080000
         131         1   4.0        5.799267143000       1.116129004156       53.668673080000
         132         1   4.0        1.933037500000       3.348119162936       55.247069680000
         133         1   4.0        5.799112500000       3.348119162936       55.247069680000
         134         1   4.0        1.933192143000       1.116129004156       53.668673080000
         135         1   4.0        3.866229643000       4.464248167092       53.668673080000
         136         1   4.0        7.732150000000       6.696238325872       55.247069680000
         137         2   -2.0        7.732304643000       4.464248167092       56.036267980000
         138         2   -2.0        1.933192143000       1.116129004156       56.036267980000
         139         2   -2.0        3.866229643000       4.464248167092       56.036267980000
         140         2   -2.0        5.799267143000       1.116129004156       56.036267980000
         141         1   4.0        7.732304643000       4.464248167092       58.403862880000
         142         1   4.0        3.865920357000       2.231990158780       56.825466280000
         143         1   4.0        5.798957857000       5.580109321716       56.825466280000
         144         1   4.0        5.799267143000       1.116129004156       58.403862880000
         145         1   4.0        1.933192143000       1.116129004156       58.403862880000
         146         1   4.0        9.665032857000       5.580109321716       56.825466280000
         147         1   4.0        7.731995357000       2.231990158780       56.825466280000
         148         1   4.0        3.866229643000       4.464248167092       58.403862880000
         149         2   -2.0        3.865920357000       2.231990158780       59.193061180000
         150         2   -2.0        9.665032857000       5.580109321716       59.193061180000
         151         2   -2.0        7.731995357000       2.231990158780       59.193061180000
         152         2   -2.0        5.798957857000       5.580109321716       59.193061180000
         153         1   4.0        3.865920357000       2.231990158780       61.560656080000
         154         1   4.0        3.866075000000       6.696238325872       59.982259480000
         155         1   4.0        1.933037500000       3.348119162936       59.982259480000
         156         1   4.0        5.798957857000       5.580109321716       61.560656080000
         157         1   4.0        9.665032857000       5.580109321716       61.560656080000
         158         1   4.0        5.799112500000       3.348119162936       59.982259480000
         159         1   4.0        7.732150000000       6.696238325872       59.982259480000
         160         1   4.0        7.731995357000       2.231990158780       61.560656080000
         161         2   -2.0        11.598225000000       6.696238325872       62.349854380000
         162         2   -2.0        5.799112500000       3.348119162936       62.349854380000
         163         2   -2.0        7.732150000000       6.696238325872       62.349854380000
         164         2   -2.0        9.665187500000       3.348119162936       62.349854380000
         165         1   4.0        7.732304643000       4.464248167092       63.139052680000
         166         1   4.0        5.799267143000       1.116129004156       63.139052680000
         167         1   4.0        1.933192143000       1.116129004156       63.139052680000
         168         1   4.0        3.866229643000       4.464248167092       63.139052680000
         169         1   4.0        11.598379643000       11.160486492964       20.523938820000
         170         1   4.0        9.665342143000       7.812367330028       20.523938820000
         171         1   4.0        5.799267143000       7.812367330028       20.523938820000
         172         1   4.0        7.732304643000       11.160486492964       20.523938820000
         173         2   -2.0        7.731995357000       8.928228484651       21.313137120000
         174         2   -2.0        13.531107857000       12.276347647587       21.313137120000
         175         2   -2.0        11.598070357000       8.928228484651       21.313137120000
         176         2   -2.0        9.665032857000       12.276347647587       21.313137120000
         177         1   4.0        7.731995357000       8.928228484651       23.680732020000
         178         1   4.0        7.732150000000       13.392476651744       22.102335420000
         179         1   4.0        5.799112500000       10.044357488808       22.102335420000
         180         1   4.0        9.665032857000       12.276347647587       23.680732020000
         181         1   4.0        13.531107857000       12.276347647587       23.680732020000
         182         1   4.0        9.665187500000       10.044357488808       22.102335420000
         183         1   4.0        11.598225000000       13.392476651744       22.102335420000
         184         1   4.0        11.598070357000       8.928228484651       23.680732020000
         185         2   -2.0        7.732150000000       13.392476651744       24.469930320000
         186         2   -2.0        9.665187500000       10.044357488808       24.469930320000
         187         2   -2.0        11.598225000000       13.392476651744       24.469930320000
         188         2   -2.0        5.799112500000       10.044357488808       24.469930320000
         189         1   4.0        38.660750000000       13.392476651744       26.837525220000
         190         1   4.0        11.598379643000       11.160486492964       25.259128620000
         191         1   4.0        9.665342143000       7.812367330028       25.259128620000
         192         1   4.0        5.799112500000       10.044357488808       26.837525220000
         193         1   4.0        9.665187500000       10.044357488808       26.837525220000
         194         1   4.0        5.799267143000       7.812367330028       25.259128620000
         195         1   4.0        7.732304643000       11.160486492964       25.259128620000
         196         1   4.0        11.598225000000       13.392476651744       26.837525220000
         197         2   -2.0        11.598379643000       11.160486492964       27.626723520000
         198         2   -2.0        5.799267143000       7.812367330028       27.626723520000
         199         2   -2.0        7.732304643000       11.160486492964       27.626723520000
         200         2   -2.0        9.665342143000       7.812367330028       27.626723520000
         201         1   4.0        11.598379643000       11.160486492964       29.994318420000
         202         1   4.0        7.731995357000       8.928228484651       28.415921820000
         203         1   4.0        9.665032857000       12.276347647587       28.415921820000
         204         1   4.0        9.665342143000       7.812367330028       29.994318420000
         205         1   4.0        5.799267143000       7.812367330028       29.994318420000
         206         1   4.0        13.531107857000       12.276347647587       28.415921820000
         207         1   4.0        11.598070357000       8.928228484651       28.415921820000
         208         1   4.0        7.732304643000       11.160486492964       29.994318420000
         209         2   -2.0        7.731995357000       8.928228484651       30.783516720000
         210         2   -2.0        13.531107857000       12.276347647587       30.783516720000
         211         2   -2.0        11.598070357000       8.928228484651       30.783516720000
         212         2   -2.0        9.665032857000       12.276347647587       30.783516720000
         213         1   4.0        7.731995357000       8.928228484651       33.150314450000
         214         1   4.0        38.660750000000       13.392476651744       31.572715020000
         215         1   4.0        5.799112500000       10.044357488808       31.572715020000
         216         1   4.0        9.665032857000       12.276347647587       33.150314450000
         217         1   4.0        13.531107857000       12.276347647587       33.150314450000
         218         1   4.0        9.665187500000       10.044357488808       31.572715020000
         219         1   4.0        11.598225000000       13.392476651744       31.572715020000
         220         1   4.0        11.598070357000       8.928228484651       33.150314450000
         221         2   -2.0        38.660750000000       13.392476651744       33.939512750000
         222         2   -2.0        9.665187500000       10.044357488808       33.939512750000
         223         2   -2.0        11.598225000000       13.392476651744       33.939512750000
         224         2   -2.0        5.799112500000       10.044357488808       33.939512750000
         225         1   4.0        7.732150000000       13.392476651744       36.307107650000
         226         1   4.0        11.598379643000       11.160486492964       34.728711050000
         227         1   4.0        9.665342143000       7.812367330028       34.728711050000
         228         1   4.0        5.799112500000       10.044357488808       36.307107650000
         229         1   4.0        9.665187500000       10.044357488808       36.307107650000
         230         1   4.0        5.799267143000       7.812367330028       34.728711050000
         231         1   4.0        7.732304643000       11.160486492964       34.728711050000
         232         1   4.0        11.598225000000       13.392476651744       36.307107650000
         233         2   -2.0        11.598379643000       11.160486492964       37.096305950000
         234         2   -2.0        5.799267143000       7.812367330028       37.096305950000
         235         2   -2.0        7.732304643000       11.160486492964       37.096305950000
         236         2   -2.0        9.665342143000       7.812367330028       37.096305950000
         237         1   4.0        11.598379643000       11.160486492964       39.463900850000
         238         1   4.0        7.731995357000       8.928228484651       37.885504250000
         239         1   4.0        9.665032857000       12.276347647587       37.885504250000
         240         1   4.0        9.665342143000       7.812367330028       39.463900850000
         241         1   4.0        5.799267143000       7.812367330028       39.463900850000
         242         1   4.0        13.531107857000       12.276347647587       37.885504250000
         243         1   4.0        11.598070357000       8.928228484651       37.885504250000
         244         1   4.0        7.732304643000       11.160486492964       39.463900850000
         245         2   -2.0        7.731995357000       8.928228484651       40.253099150000
         246         2   -2.0        13.531107857000       12.276347647587       40.253099150000
         247         2   -2.0        11.598070357000       8.928228484651       40.253099150000
         248         2   -2.0        9.665032857000       12.276347647587       40.253099150000
         249         1   4.0        7.731995357000       8.928228484651       42.620694050000
         250         1   4.0        7.732150000000       13.392476651744       41.042297450000
         251         1   4.0        5.799112500000       10.044357488808       41.042297450000
         252         1   4.0        9.665032857000       12.276347647587       42.620694050000
         253         1   4.0        13.531107857000       12.276347647587       42.620694050000
         254         1   4.0        9.665187500000       10.044357488808       41.042297450000
         255         1   4.0        11.598225000000       13.392476651744       41.042297450000
         256         1   4.0        11.598070357000       8.928228484651       42.620694050000
         257         2   -2.0        7.732150000000       13.392476651744       43.409892350000
         258         2   -2.0        9.665187500000       10.044357488808       43.409892350000
         259         2   -2.0        11.598225000000       13.392476651744       43.409892350000
         260         2   -2.0        5.799112500000       10.044357488808       43.409892350000
         261         1   4.0        7.732150000000       13.392476651744       45.777487250000
         262         1   4.0        11.598379643000       11.160486492964       44.199090650000
         263         1   4.0        9.665342143000       7.812367330028       44.199090650000
         264         1   4.0        36.727712500000       10.044357488808       45.777487250000
         265         1   4.0        9.665187500000       10.044357488808       45.777487250000
         266         1   4.0        5.799267143000       7.812367330028       44.199090650000
         267         1   4.0        7.732304643000       11.160486492964       44.199090650000
         268         1   4.0        11.598225000000       13.392476651744       45.777487250000
         269         2   -2.0        11.598379643000       11.160486492964       46.566685550000
         270         2   -2.0        5.799267143000       7.812367330028       46.566685550000
         271         2   -2.0        7.732304643000       11.160486492964       46.566685550000
         272         2   -2.0        9.665342143000       7.812367330028       46.566685550000
         273         1   4.0        11.598379643000       11.160486492964       48.933483280000
         274         1   4.0        7.731995357000       8.928228484651       47.355883850000
         275         1   4.0        9.665032857000       12.276347647587       47.355883850000
         276         1   4.0        9.665342143000       7.812367330028       48.933483280000
         277         1   4.0        5.799267143000       7.812367330028       48.933483280000
         278         1   4.0        13.531107857000       12.276347647587       47.355883850000
         279         1   4.0        11.598070357000       8.928228484651       47.355883850000
         280         1   4.0        7.732304643000       11.160486492964       48.933483280000
         281         2   -2.0        7.731995357000       8.928228484651       49.722681580000
         282         2   -2.0        13.531107857000       12.276347647587       49.722681580000
         283         2   -2.0        11.598070357000       8.928228484651       49.722681580000
         284         2   -2.0        9.665032857000       12.276347647587       49.722681580000
         285         1   4.0        7.731995357000       8.928228484651       52.090276480000
         286         1   4.0        38.660750000000       13.392476651744       50.511879880000
         287         1   4.0        36.727712500000       10.044357488808       50.511879880000
         288         1   4.0        9.665032857000       12.276347647587       52.090276480000
         289         1   4.0        13.531107857000       12.276347647587       52.090276480000
         290         1   4.0        9.665187500000       10.044357488808       50.511879880000
         291         1   4.0        11.598225000000       13.392476651744       50.511879880000
         292         1   4.0        11.598070357000       8.928228484651       52.090276480000
         293         2   -2.0        7.732150000000       13.392476651744       52.879474780000
         294         2   -2.0        9.665187500000       10.044357488808       52.879474780000
         295         2   -2.0        11.598225000000       13.392476651744       52.879474780000
         296         2   -2.0        36.727712500000       10.044357488808       52.879474780000
         297         1   4.0        7.732150000000       13.392476651744       55.247069680000
         298         1   4.0        11.598379643000       11.160486492964       53.668673080000
         299         1   4.0        9.665342143000       7.812367330028       53.668673080000
         300         1   4.0        5.799112500000       10.044357488808       55.247069680000
         301         1   4.0        9.665187500000       10.044357488808       55.247069680000
         302         1   4.0        5.799267143000       7.812367330028       53.668673080000
         303         1   4.0        7.732304643000       11.160486492964       53.668673080000
         304         1   4.0        11.598225000000       13.392476651744       55.247069680000
         305         2   -2.0        11.598379643000       11.160486492964       56.036267980000
         306         2   -2.0        5.799267143000       7.812367330028       56.036267980000
         307         2   -2.0        7.732304643000       11.160486492964       56.036267980000
         308         2   -2.0        9.665342143000       7.812367330028       56.036267980000
         309         1   4.0        11.598379643000       11.160486492964       58.403862880000
         310         1   4.0        7.731995357000       8.928228484651       56.825466280000
         311         1   4.0        9.665032857000       12.276347647587       56.825466280000
         312         1   4.0        9.665342143000       7.812367330028       58.403862880000
         313         1   4.0        5.799267143000       7.812367330028       58.403862880000