 # "O112 Ce56"
  
         168  atoms
           2  atom types
 
      0.000000000000       7.732140000000  xlo xhi
      0.000000000000       6.696229665618  ylo yhi
      0.000000000000      79.717000000000  zlo zhi
      3.866070000000       0.000000000000       0.000000000000  xy xz yz
 
Masses
 
            1   15.99900000             # O
            2   140.11600000            # Ce
 
Atoms # atomic
 
         1         1   4.0        7.732178660700       4.464175431177       20.523938820000
         2         1   4.0        5.799143660700       1.116060598369       20.523938820000
         3         1   4.0        1.933073660700       1.116060598369       20.523938820000
         4         1   4.0        3.866108660700       4.464175431177       20.523938820000
         5         2   -2.0        3.866031339300       2.232054234440       21.313137120000
         6         2   -2.0        9.665136339300       5.580169067249       21.313137120000
         7         2   -2.0        7.732101339300       2.232054234440       21.313137120000
         8         2   -2.0        5.799066339300       5.580169067249       21.313137120000
         9         1   4.0        3.866031339300       2.232054234440       23.680732020000
         10         1   4.0        7.732140000000       0.000000000000       22.102335420000
         11         1   4.0        9.665175000000       3.348114832809       22.102335420000
         12         1   4.0        5.799066339300       5.580169067249       23.680732020000
         13         1   4.0        9.665136339300       5.580169067249       23.680732020000
         14         1   4.0        5.799105000000       3.348114832809       22.102335420000
         15         1   4.0        3.866070000000       0.000000000000       22.102335420000
         16         1   4.0        7.732101339300       2.232054234440       23.680732020000
         17         2   -2.0        7.732140000000       0.000000000000       24.469930320000
         18         2   -2.0        5.799105000000       3.348114832809       24.469930320000
         19         2   -2.0        3.866070000000       0.000000000000       24.469930320000
         20         2   -2.0        9.665175000000       3.348114832809       24.469930320000
         21         1   4.0        7.732140000000       0.000000000000       26.837525220000
         22         1   4.0        7.732178660700       4.464175431177       25.259128620000
         23         1   4.0        5.799143660700       1.116060598369       25.259128620000
         24         1   4.0        9.665175000000       3.348114832809       26.837525220000
         25         1   4.0        5.799105000000       3.348114832809       26.837525220000
         26         1   4.0        1.933073660700       1.116060598369       25.259128620000
         27         1   4.0        3.866108660700       4.464175431177       25.259128620000
         28         1   4.0        3.866070000000       0.000000000000       26.837525220000
         29         2   -2.0        7.732178660700       4.464175431177       27.626723520000
         30         2   -2.0        1.933073660700       1.116060598369       27.626723520000
         31         2   -2.0        3.866108660700       4.464175431177       27.626723520000
         32         2   -2.0        5.799143660700       1.116060598369       27.626723520000
         33         1   4.0        7.732178660700       4.464175431177       29.994318420000
         34         1   4.0        3.866031339300       2.232054234440       28.415921820000
         35         1   4.0        5.799066339300       5.580169067249       28.415921820000
         36         1   4.0        5.799143660700       1.116060598369       29.994318420000
         37         1   4.0        1.933073660700       1.116060598369       29.994318420000
         38         1   4.0        9.665136339300       5.580169067249       28.415921820000
         39         1   4.0        7.732101339300       2.232054234440       28.415921820000
         40         1   4.0        3.866108660700       4.464175431177       29.994318420000
         41         2   -2.0        3.866031339300       2.232054234440       30.783516720000
         42         2   -2.0        9.665136339300       5.580169067249       30.783516720000
         43         2   -2.0        7.732101339300       2.232054234440       30.783516720000
         44         2   -2.0        5.799066339300       5.580169067249       30.783516720000
         45         1   4.0        3.866031339300       2.232054234440       33.150314450000
         46         1   4.0        7.732140000000       0.000000000000       31.572715020000
         47         1   4.0        9.665175000000       3.348114832809       31.572715020000
         48         1   4.0        5.799066339300       5.580169067249       33.150314450000
         49         1   4.0        9.665136339300       5.580169067249       33.150314450000
         50         1   4.0        5.799105000000       3.348114832809       31.572715020000
         51         1   4.0        3.866070000000       0.000000000000       31.572715020000
         52         1   4.0        7.732101339300       2.232054234440       33.150314450000
         53         2   -2.0        7.732140000000       0.000000000000       33.939512750000
         54         2   -2.0        5.799105000000       3.348114832809       33.939512750000
         55         2   -2.0        3.866070000000       0.000000000000       33.939512750000
         56         2   -2.0        9.665175000000       3.348114832809       33.939512750000
         57         1   4.0        7.732140000000       0.000000000000       36.307107650000
         58         1   4.0        7.732178660700       4.464175431177       34.728711050000
         59         1   4.0        5.799143660700       1.116060598369       34.728711050000
         60         1   4.0        9.665175000000       3.348114832809       36.307107650000
         61         1   4.0        5.799105000000       3.348114832809       36.307107650000
         62         1   4.0        1.933073660700       1.116060598369       34.728711050000
         63         1   4.0        3.866108660700       4.464175431177       34.728711050000
         64         1   4.0        3.866070000000       0.000000000000       36.307107650000
         65         2   -2.0        7.732178660700       4.464175431177       37.096305950000
         66         2   -2.0        1.933073660700       1.116060598369       37.096305950000
         67         2   -2.0        3.866108660700       4.464175431177       37.096305950000
         68         2   -2.0        5.799143660700       1.116060598369       37.096305950000
         69         1   4.0        7.732178660700       4.464175431177       39.463900850000
         70         1   4.0        3.866031339300       2.232054234440       37.885504250000
         71         1   4.0        5.799066339300       5.580169067249       37.885504250000
         72         1   4.0        5.799143660700       1.116060598369       39.463900850000
         73         1   4.0        1.933073660700       1.116060598369       39.463900850000
         74         1   4.0        9.665136339300       5.580169067249       37.885504250000
         75         1   4.0        7.732101339300       2.232054234440       37.885504250000
         76         1   4.0        3.866108660700       4.464175431177       39.463900850000
         77         2   -2.0        3.866031339300       2.232054234440       40.253099150000
         78         2   -2.0        9.665136339300       5.580169067249       40.253099150000
         79         2   -2.0        7.732101339300       2.232054234440       40.253099150000
         80         2   -2.0        5.799066339300       5.580169067249       40.253099150000
         81         1   4.0        3.866031339300       2.232054234440       42.620694050000
         82         1   4.0        7.732140000000       0.000000000000       41.042297450000
         83         1   4.0        9.665175000000       3.348114832809       41.042297450000
         84         1   4.0        5.799066339300       5.580169067249       42.620694050000
         85         1   4.0        9.665136339300       5.580169067249       42.620694050000
         86         1   4.0        5.799105000000       3.348114832809       41.042297450000
         87         1   4.0        3.866070000000       0.000000000000       41.042297450000
         88         1   4.0        7.732101339300       2.232054234440       42.620694050000
         89         2   -2.0        7.732140000000       0.000000000000       43.409892350000
         90         2   -2.0        5.799105000000       3.348114832809       43.409892350000
         91         2   -2.0        3.866070000000       0.000000000000       43.409892350000
         92         2   -2.0        9.665175000000       3.348114832809       43.409892350000
         93         1   4.0        7.732140000000       0.000000000000       45.777487250000
         94         1   4.0        7.732178660700       4.464175431177       44.199090650000
         95         1   4.0        5.799143660700       1.116060598369       44.199090650000
         96         1   4.0        9.665175000000       3.348114832809       45.777487250000
         97         1   4.0        5.799105000000       3.348114832809       45.777487250000
         98         1   4.0        1.933073660700       1.116060598369       44.199090650000
         99         1   4.0        3.866108660700       4.464175431177       44.199090650000
         100         1   4.0        3.866070000000       0.000000000000       45.777487250000
         101         2   -2.0        7.732178660700       4.464175431177       46.566685550000
         102         2   -2.0        1.933073660700       1.116060598369       46.566685550000
         103         2   -2.0        3.866108660700       4.464175431177       46.566685550000
         104         2   -2.0        5.799143660700       1.116060598369       46.566685550000
         105         1   4.0        7.732178660700       4.464175431177       48.933483280000
         106         1   4.0        3.866031339300       2.232054234440       47.355883850000
         107         1   4.0        5.799066339300       5.580169067249       47.355883850000
         108         1   4.0        5.799143660700       1.116060598369       48.933483280000
         109         1   4.0        1.933073660700       1.116060598369       48.933483280000
         110         1   4.0        9.665136339300       5.580169067249       47.355883850000
         111         1   4.0        7.732101339300       2.232054234440       47.355883850000
         112         1   4.0        3.866108660700       4.464175431177       48.933483280000
         113         2   -2.0        3.866031339300       2.232054234440       49.722681580000
         114         2   -2.0        9.665136339300       5.580169067249       49.722681580000
         115         2   -2.0        7.732101339300       2.232054234440       49.722681580000
         116         2   -2.0        5.799066339300       5.580169067249       49.722681580000
         117         1   4.0        3.866031339300       2.232054234440       52.090276480000
         118         1   4.0        7.732140000000       0.000000000000       50.511879880000
         119         1   4.0        9.665175000000       3.348114832809       50.511879880000
         120         1   4.0        5.799066339300       5.580169067249       52.090276480000
         121         1   4.0        9.665136339300       5.580169067249       52.090276480000
         122         1   4.0        5.799105000000       3.348114832809       50.511879880000
         123         1   4.0        3.866070000000       0.000000000000       50.511879880000
         124         1   4.0        7.732101339300       2.232054234440       52.090276480000
         125         2   -2.0        7.732140000000       0.000000000000       52.879474780000
         126         2   -2.0        5.799105000000       3.348114832809       52.879474780000
         127         2   -2.0        3.866070000000       0.000000000000       52.879474780000
         128         2   -2.0        9.665175000000       3.348114832809       52.879474780000
         129         1   4.0        7.732140000000       0.000000000000       55.247069680000
         130         1   4.0        7.732178660700       4.464175431177       53.668673080000
         131         1   4.0        5.799143660700       1.116060598369       53.668673080000
         132         1   4.0        9.665175000000       3.348114832809       55.247069680000
         133         1   4.0        5.799105000000       3.348114832809       55.247069680000
         134         1   4.0        1.933073660700       1.116060598369       53.668673080000
         135         1   4.0        3.866108660700       4.464175431177       53.668673080000
         136         1   4.0        3.866070000000       0.000000000000       55.247069680000
         137         2   -2.0        7.732178660700       4.464175431177       56.036267980000
         138         2   -2.0        1.933073660700       1.116060598369       56.036267980000
         139         2   -2.0        3.866108660700       4.464175431177       56.036267980000
         140         2   -2.0        5.799143660700       1.116060598369       56.036267980000
         141         1   4.0        7.732178660700       4.464175431177       58.403862880000
         142         1   4.0        3.866031339300       2.232054234440       56.825466280000
         143         1   4.0        5.799066339300       5.580169067249       56.825466280000
         144         1   4.0        5.799143660700       1.116060598369       58.403862880000
         145         1   4.0        1.933073660700       1.116060598369       58.403862880000
         146         1   4.0        9.665136339300       5.580169067249       56.825466280000
         147         1   4.0        7.732101339300       2.232054234440       56.825466280000
         148         1   4.0        3.866108660700       4.464175431177       58.403862880000
         149         2   -2.0        3.866031339300       2.232054234440       59.193061180000
         150         2   -2.0        9.665136339300       5.580169067249       59.193061180000
         151         2   -2.0        7.732101339300       2.232054234440       59.193061180000
         152         2   -2.0        5.799066339300       5.580169067249       59.193061180000
         153         1   4.0        3.866031339300       2.232054234440       61.560656080000
         154         1   4.0        7.732140000000       0.000000000000       59.982259480000
         155         1   4.0        9.665175000000       3.348114832809       59.982259480000
         156         1   4.0        5.799066339300       5.580169067249       61.560656080000
         157         1   4.0        9.665136339300       5.580169067249       61.560656080000
         158         1   4.0        5.799105000000       3.348114832809       59.982259480000
         159         1   4.0        3.866070000000       0.000000000000       59.982259480000
         160         1   4.0        7.732101339300       2.232054234440       61.560656080000
         161         2   -2.0        7.732140000000       0.000000000000       62.349854380000
         162         2   -2.0        5.799105000000       3.348114832809       62.349854380000
         163         2   -2.0        3.866070000000       0.000000000000       62.349854380000
         164         2   -2.0        9.665175000000       3.348114832809       62.349854380000
         165         1   4.0        7.732178660700       4.464175431177       63.139052680000
         166         1   4.0        5.799143660700       1.116060598369       63.139052680000
         167         1   4.0        1.933073660700       1.116060598369       63.139052680000
         168         1   4.0        3.866108660700       4.464175431177       63.139052680000
