 # "Ce21 O42"
  
          63  atoms
           2  atom types
 
      0.000000000000      15.464300000000  xlo xhi
      0.000000000000       5.467450000000  ylo yhi
      0.000000000000     105.388000000000  zlo zhi
 
Masses
 
            1   140.11600000            # Ce
            2   15.99900000             # O
 
Atoms # atomic
 
         1         1   4.0        7.732150000000       0.000000000000       76.857360640000
         2         1   4.0        3.866075000000       0.000000000000       76.857360640000
         3         1   4.0        5.799112500000       2.733725000000       78.790176560000
         4         2   -2.0        7.732150000000       4.100587500000       78.790176560000
         5         2   -2.0        3.866075000000       1.366862500000       78.790176560000
         6         2   -2.0        5.799112500000       4.100587500000       76.857360640000
         7         2   -2.0        3.866075000000       4.100587500000       78.790176560000
         8         2   -2.0        7.732150000000       1.366862500000       78.790176560000
         9         2   -2.0        5.799112500000       1.366862500000       76.857360640000
         10         1   4.0        3.866075000000       0.000000000000       80.722992480000
         11         1   4.0        7.732150000000       0.000000000000       80.722992480000
         12         1   4.0        5.799112500000       2.733725000000       82.655808400000
         13         2   -2.0        3.866075000000       4.100587500000       82.655808400000
         14         2   -2.0        7.732150000000       1.366862500000       82.655808400000
         15         2   -2.0        5.799112500000       1.366862500000       80.722992480000
         16         2   -2.0        7.732150000000       4.100587500000       82.655808400000
         17         2   -2.0        3.866075000000       1.366862500000       82.655808400000
         18         2   -2.0        5.799112500000       4.100587500000       80.722992480000
         19         1   4.0        7.732150000000       0.000000000000       84.588624320000
         20         1   4.0        3.866075000000       0.000000000000       84.588624320000
         21         1   4.0        5.799112500000       2.733725000000       86.522494120000
         22         2   -2.0        7.732150000000       4.100587500000       86.522494120000
         23         2   -2.0        3.866075000000       1.366862500000       86.522494120000
         24         2   -2.0        5.799112500000       4.100587500000       84.588624320000
         25         2   -2.0        3.866075000000       4.100587500000       86.522494120000
         26         2   -2.0        7.732150000000       1.366862500000       86.522494120000
         27         2   -2.0        5.799112500000       1.366862500000       84.588624320000
         28         1   4.0        3.866075000000       0.000000000000       88.455310040000
         29         1   4.0        7.732150000000       0.000000000000       88.455310040000
         30         2   -2.0        5.799112500000       1.366862500000       88.455310040000
         31         2   -2.0        5.799112500000       4.100587500000       88.455310040000
         32         1   4.0        11.598225000000       0.000000000000       76.857360640000
         33         1   4.0        9.665187500000       2.733725000000       78.790176560000
         34         1   4.0        13.531262500000       2.733725000000       78.790176560000
         35         2   -2.0        11.598225000000       1.366862500000       78.790176560000
         36         2   -2.0        13.531262500000       4.100587500000       76.857360640000
         37         2   -2.0        9.665187500000       1.366862500000       76.857360640000
         38         2   -2.0        11.598225000000       4.100587500000       78.790176560000
         39         2   -2.0        9.665187500000       4.100587500000       76.857360640000
         40         2   -2.0        13.531262500000       1.366862500000       76.857360640000
         41         1   4.0        11.598225000000       0.000000000000       80.722992480000
         42         1   4.0        13.531262500000       2.733725000000       82.655808400000
         43         1   4.0        9.665187500000       2.733725000000       82.655808400000
         44         2   -2.0        11.598225000000       4.100587500000       82.655808400000
         45         2   -2.0        9.665187500000       4.100587500000       80.722992480000
         46         2   -2.0        13.531262500000       1.366862500000       80.722992480000
         47         2   -2.0        11.598225000000       1.366862500000       82.655808400000
         48         2   -2.0        13.531262500000       4.100587500000       80.722992480000
         49         2   -2.0        9.665187500000       1.366862500000       80.722992480000
         50         1   4.0        11.598225000000       0.000000000000       84.588624320000
         51         1   4.0        9.665187500000       2.733725000000       86.522494120000
         52         1   4.0        13.531262500000       2.733725000000       86.522494120000
         53         2   -2.0        11.598225000000       1.366862500000       86.522494120000
         54         2   -2.0        13.531262500000       4.100587500000       84.588624320000
         55         2   -2.0        9.665187500000       1.366862500000       84.588624320000
         56         2   -2.0        11.598225000000       4.100587500000       86.522494120000
         57         2   -2.0        9.665187500000       4.100587500000       84.588624320000
         58         2   -2.0        13.531262500000       1.366862500000       84.588624320000
         59         1   4.0        11.598225000000       0.000000000000       88.455310040000
         60         2   -2.0        9.665187500000       4.100587500000       88.455310040000
         61         2   -2.0        13.531262500000       1.366862500000       88.455310040000
         62         2   -2.0        13.531262500000       4.100587500000       88.455310040000
         63         2   -2.0        9.665187500000       1.366862500000       88.455310040000
