ITEM: TIMESTEP
1000000
ITEM: NUMBER OF ATOMS
672
ITEM: BOX BOUNDS xy xz yz pp pp ss
-7.7250378012545253e+00 1.7396220105465758e+01 -7.7250378012545253e+00
0.0000000000000000e+00 1.4508061823532310e+01 1.9312594387990956e+00
7.3149800854892689e+01 1.6687824030337319e+02 1.1150131568656427e+00
ITEM: ATOMS id type x y z vx vy vz q
362 2 4.70311 8.77106 73.1665 -0.0092552 0.00891694 -0.00500099 -0.242709
663 2 0.158971 5.01005 123.708 -0.00127203 0.00323933 0.00626149 -0.650306
646 2 0.0532865 2.89606 125.325 0.000377681 0.00141792 0.00324442 -0.683951
643 2 -1.77882 6.14297 125.019 -0.00540261 -0.000843723 0.000394755 -0.719513
183 1 0.148151 5.02869 130.809 -0.000730952 0.000866865 0.00141476 1.32755
615 2 -0.00229738 5.08345 128.362 0.000634749 -0.00639075 -0.00278566 -0.707285
198 1 0.121943 2.81927 127.674 0.0017316 0.000209309 0.00228625 1.39267
598 2 0.0732925 2.77893 130.075 -0.00477209 0.00108483 0.00696701 -0.694153
195 1 -1.84267 6.1913 127.718 -0.00103088 0.000277794 0.000928758 1.4055
595 2 -1.91275 6.24241 130.084 0.00293502 0.000147855 0.00382484 -0.662896
210 1 7.77005 0.638767 124.444 0.000900139 0.00142001 -0.000529163 1.2699
222 1 3.85147 0.630023 124.3 0.000448152 -0.00160653 0.00178837 1.3154
647 2 2.06797 6.15844 125.18 0.00530153 0.00460139 -0.00294153 -0.726323
220 1 4.01346 7.22462 124.359 -0.000482861 -0.000477567 0.000885112 1.33859
651 2 6.02567 6.13703 125.139 0.00123216 0.000937973 0.00249488 -0.695605
650 2 3.98959 2.90376 125.221 0.00407458 -0.00452291 -0.00385396 -0.709839
654 2 7.75033 2.89915 125.185 -0.00535396 0.000413619 0.0009362 -0.675172
667 2 4.04323 5.32346 123.578 0.000144745 -0.00252038 -0.0033565 -0.693354
671 2 8.08771 4.84757 123.597 -0.00299782 0.00629957 -0.00613348 -0.630759
223 1 5.89852 3.99795 124.505 0.00137335 -0.000470865 0.000577574 1.33709
670 2 5.92771 1.80015 123.574 0.00269915 -0.000169597 -0.000685365 -0.632772
219 1 2.12693 4.09643 124.457 -0.000336228 0.00219876 -0.00166195 1.31216
666 2 2.15435 1.59611 123.633 0.00733638 0.00102004 -0.00181213 -0.646013
618 2 1.92704 1.73763 128.449 -0.000332695 0.00103601 -0.00570915 -0.689604
587 2 2.15271 3.99462 131.552 -0.000441106 -0.00408537 -0.0048819 -0.737643
635 2 2.02787 4.02971 126.804 0.00291983 0.00439785 -0.00373374 -0.686863
186 1 2.10018 1.70558 130.841 0.000853905 -0.00244061 -0.000224639 1.37619
599 2 2.03929 6.31204 129.968 0.000381889 -0.00235011 -0.00390648 -0.669745
199 1 1.99826 6.24266 127.558 0.00125544 -0.00137889 0.0013699 1.35542
602 2 4.02176 2.80331 130.026 -0.00012501 0.000511704 0.00339121 -0.692091
619 2 3.91441 5.05183 128.462 -0.00442976 -0.00351417 -3.95174e-05 -0.696247
202 1 3.98991 2.93459 127.68 0.000744737 5.16595e-05 -0.0024715 1.35297
187 1 3.98966 5.04486 130.851 0.00184557 -0.000935819 0.00146865 1.42676
190 1 5.92523 1.64344 130.767 0.00160048 0.00158108 -0.000613134 1.40404
206 1 7.86528 2.9129 127.68 -0.00119765 -0.000371276 0.00176371 1.38918
606 2 7.87 2.81378 130.035 0.00316633 0.00330239 -0.000385008 -0.715391
622 2 5.85171 1.86366 128.449 0.000671903 -3.42877e-05 0.003739 -0.699106
591 2 5.90104 3.99239 131.495 -0.00174423 0.00138093 0.00521752 -0.704411
639 2 6.06933 4.11493 126.838 -0.00264871 0.00718222 0.0027418 -0.703183
191 1 7.76458 5.05653 130.797 0.000468277 -0.000228073 -0.00142576 1.415
623 2 7.79018 5.1142 128.496 -0.00169855 0.00190743 -0.00133597 -0.693418
203 1 5.86414 6.24045 127.568 0.00169442 -0.000594987 0.000584816 1.42579
603 2 5.93583 6.21821 130.055 -0.00039867 -0.00266462 -0.00193268 -0.676246
592 2 7.79623 7.2821 131.644 -0.00169973 0.00816831 0.00524728 -0.679718
588 2 4.0702 7.21479 131.539 -0.0040545 0.00374238 0.000623314 -0.703081
636 2 4.11433 7.17025 126.796 0.00836395 0.00458981 -0.00411646 -0.70556
218 1 15.4458 0.612778 124.398 -0.000165261 -0.000519013 -0.000691686 1.41204
214 1 11.6566 0.614554 124.551 -0.000151689 0.00148891 -1.21346e-05 1.30437
655 2 9.71941 6.27618 125.241 0.00249129 0.00584459 0.000209938 -0.702832
642 2 11.8073 2.84694 125.186 0.000356495 0.00266869 -0.00142055 -0.68843
212 1 11.6932 7.24082 124.454 0.000207258 1.88777e-06 -0.00138127 1.34737
659 2 11.6748 5.33581 123.677 0.00336993 0.00212076 -0.00154143 -0.657783
215 1 13.7653 4.08875 124.565 -0.00238764 -0.000321188 0.00211638 1.35174
662 2 13.9434 1.5999 123.64 -0.00263427 -0.00245208 0.0032013 -0.658576
211 1 9.73135 4.0429 124.383 -0.0019484 -0.00178914 -0.000560063 1.34374
658 2 9.79327 1.67988 123.745 0.00327258 -0.000595622 0.00228582 -0.645837
627 2 9.75127 4.09978 126.826 -0.00277889 -0.00117329 0.00512164 -0.68635
610 2 9.68952 1.81894 128.431 0.00428211 -0.00475097 -0.000910636 -0.706514
607 2 9.74726 6.24126 130.078 -0.00171563 0.00586271 0.00694481 -0.674716
178 1 9.68098 1.71595 130.751 -0.000320917 0.00198356 -0.000796973 1.39652
579 2 9.64768 3.97733 131.719 -0.00363146 0.00126011 -0.00604678 -0.705977
207 1 9.7531 6.21258 127.707 -0.000823712 -0.00129346 0.00172022 1.40241
594 2 11.6633 2.75544 129.985 0.00167228 0.000550274 -0.0039085 -0.713379
179 1 11.6449 4.93381 130.969 -0.000368183 -0.00144628 -0.00118851 1.36806
611 2 11.5858 5.00901 128.455 -0.00064692 0.00355611 -0.00400348 -0.684689
194 1 11.729 2.87968 127.659 -9.85608e-05 0.00110862 -0.00149727 1.39895
182 1 13.5936 1.64364 130.779 0.000445292 -0.00145747 -0.000618895 1.37778
614 2 13.6045 1.76191 128.302 0.00287871 -0.00596176 0.00022713 -0.698245
631 2 13.5557 4.03591 126.893 0.00471453 0.00117593 0.00313656 -0.70745
628 2 11.7525 7.26327 126.841 -0.00168423 0.00104264 -0.00304326 -0.685174
649 2 -5.7225 13.0242 125.267 0.00212662 -0.000714417 -0.000536987 -0.665929
656 2 -3.87359 9.41766 125.249 0.00327238 -0.0141397 0.00112015 -0.703025
653 2 -1.85868 12.8292 125.192 0.000161913 -0.00659329 -0.00441618 -0.70147
644 2 0.135286 9.32772 125.194 0.000852064 0.00101436 -0.000585025 -0.684025
669 2 -4.05245 11.6949 123.618 -0.000708153 0.000224159 -0.00118972 -0.688093
660 2 -1.72075 8.70776 123.677 0.0019326 0.00193137 -0.00256886 -0.675451
209 1 -1.87392 10.52 124.454 -0.000267163 0.00159844 -0.000130067 1.31325
657 2 0.364303 11.4451 123.685 -0.00577768 -0.00218903 -0.00325503 -0.667388
216 1 0.158635 7.37411 124.406 0.00132362 -0.00160047 0.00121762 1.41447
632 2 -0.0177915 7.33113 126.79 9.91658e-05 0.000902582 0.00141597 -0.682765
584 2 0.195764 7.35953 131.621 -0.00179132 -0.00165845 -0.00492495 -0.658562
638 2 -3.78579 13.9941 126.824 0.00605689 -0.0011608 0.00320941 -0.675321
608 2 -3.84718 9.52126 130.078 -0.000395848 0.00630326 -0.0044355 -0.719414
208 1 -3.80517 9.51591 127.706 0.000496245 0.00110759 0.00208022 1.39386
201 1 -5.62589 12.8814 127.708 0.00147366 -0.000418571 -0.000436489 1.39147
601 2 -5.63856 12.9122 130.039 -0.000191771 0.000437917 -0.00216952 -0.708829
621 2 -3.80417 11.7107 128.425 -0.0112071 0.00456257 0.0034595 -0.707031
612 2 -1.84305 8.2626 128.489 -0.00578957 0.000317117 -0.000802708 -0.683037
189 1 -3.75162 11.7408 130.854 -0.000201967 -0.00248432 0.000749881 1.36607
180 1 -1.91453 8.42289 130.913 0.00129428 0.001588 0.00257296 1.39298
596 2 0.0275316 9.44931 129.995 -0.00612883 0.00474617 0.00128015 -0.681371
196 1 0.0184309 9.54007 127.657 0.00167842 0.00150362 0.00087935 1.38929
577 2 -1.80549 10.5438 131.631 -0.00165783 -0.00169684 0.00377655 -0.731302
625 2 -1.89592 10.5659 126.937 0.00263372 0.000285154 0.00219928 -0.704227
177 1 0.0663929 11.7001 130.798 -0.000844301 0.000976296 0.000152311 1.36596
609 2 0.00627321 11.7834 128.447 0.00237218 -0.00557019 -0.0053843 -0.687603
205 1 -1.86633 12.9315 127.612 0.000248194 -0.000934742 -0.00108824 1.37118
605 2 -1.78942 12.9308 129.915 0.00117828 -0.0026932 0.00256444 -0.699481
590 2 -3.66849 13.8677 131.571 9.95933e-05 -0.000908189 0.00715253 -0.709468
578 2 0.113467 13.9555 131.555 -0.00831461 -0.00242709 0.00126207 -0.713083
626 2 0.115045 13.9895 126.86 0.000890208 -0.0023925 -0.0113708 -0.700201
648 2 3.70285 9.43253 125.347 -0.00242082 -0.00394339 0.0033413 -0.713742
668 2 5.90711 8.60474 123.917 -0.001756 0.000926973 -0.00287493 -0.695213
665 2 7.66345 12.0677 123.784 -0.000266888 -0.00335139 -0.00181755 -0.660558
661 2 4.15157 11.6187 123.726 -1.09232e-06 7.43423e-07 0.000760127 -0.693048
217 1 5.73782 10.6525 124.5 0.00248397 0.000481182 -0.00247442 1.37657
213 1 1.99322 10.5996 124.382 -0.000205216 -0.00200211 -0.000577632 1.37094
664 2 1.81842 8.21259 123.624 -0.0048033 0.0023796 0.00121017 -0.667449
652 2 8.05384 9.51482 125.299 0.00412261 -0.00437971 -0.00143492 -0.701287
641 2 1.99433 12.8286 125.309 -0.00389293 -0.00655487 -0.00118495 -0.676538
645 2 5.76497 12.8791 125.324 0.000491483 0.000677841 -0.00719832 -0.698545
224 1 7.96088 7.45471 124.517 -0.000304493 -0.00130111 -0.000561632 1.38625
640 2 7.69289 7.38504 126.888 0.00130828 0.00557109 0.00237158 -0.6962
620 2 5.8525 8.44658 128.459 -0.00134104 0.000315902 -0.0083455 -0.685414
604 2 7.93399 9.49303 130.1 0.00326434 -0.000130695 -0.00769494 -0.701425
204 1 7.82799 9.57124 127.637 -3.43527e-05 0.000508419 0.00151009 1.37272
188 1 5.8529 8.40848 130.782 0.000185064 -0.000351288 9.55022e-05 1.39164
585 2 5.92399 10.6099 131.626 -0.00137198 -0.00378585 0.00400357 -0.680268
633 2 5.84904 10.6649 126.772 0.000404633 0.00203117 0.00015458 -0.719336
185 1 7.92171 11.7625 130.801 -0.000402828 -0.000906088 -0.000742671 1.40319
617 2 7.80065 11.8108 128.506 -0.000561847 0.00150149 -0.000577762 -0.712865
600 2 3.83627 9.70306 130.134 -0.00445086 0.00142437 -0.00270787 -0.711381
181 1 3.91454 11.7842 130.749 -3.26268e-05 0.00102561 0.00138241 1.43549
200 1 3.81975 9.56394 127.593 -0.00165857 -0.00124144 0.00176064 1.35862
613 2 3.87424 11.8102 128.505 -0.00202187 -0.000282146 0.00093153 -0.692551
597 2 5.87466 12.8548 130.02 -0.003232 -0.0022942 0.00245842 -0.688356
197 1 5.94429 12.8315 127.627 -0.000330624 0.000375345 0.00126975 1.38048
193 1 1.96723 12.914 127.627 -0.00166776 0.000259267 -0.00205721 1.40915
184 1 2.03026 8.43878 130.802 -0.000868792 -0.000604502 -0.000277274 1.40278
593 2 2.05844 12.8533 130.009 -0.00110605 -0.00292545 -0.00988257 -0.698708
581 2 1.94676 10.6101 131.667 0.000407862 -0.00291048 -0.0106396 -0.706533
629 2 1.89436 10.7187 126.794 0.00377265 0.00150142 -0.000199928 -0.674292
616 2 2.02115 8.48711 128.352 -4.80841e-05 0.00312224 -0.00752045 -0.720421
586 2 7.84735 13.9195 131.549 0.00711545 -0.00373638 -0.00510404 -0.672962
634 2 7.89262 13.9531 126.928 -0.00162851 -0.00244741 0.00221717 -0.660601
582 2 3.94672 13.9784 131.573 -0.00270772 -0.00298026 -0.00712955 -0.696531
630 2 3.8489 14.0142 126.897 -0.000860402 0.0029005 -0.00117964 -0.684676
221 1 9.80837 10.734 124.446 -0.00178006 0.00127887 0.000226085 1.31152
672 2 9.52566 8.24253 123.553 0.000144511 -0.00353682 0.00390445 -0.648299
637 2 9.74428 10.5906 126.942 -0.00302353 0.00605392 0.00294477 -0.691951
192 1 9.71624 8.40217 130.861 -0.00052645 0.000201621 -7.2825e-05 1.40576
624 2 9.81958 8.29177 128.431 0.00247218 -0.000164573 0.00162125 -0.702838
488 2 0.0941161 7.2833 141.248 0.00432254 -0.000937403 -0.00588366 -0.688835
471 2 0.0651834 4.94434 142.84 0.00234715 0.00142763 0.0037982 -0.698227
135 1 0.12219 4.99593 140.43 0.000845128 -0.000279396 0.000190807 1.40414
547 2 -1.80926 6.09112 134.702 0.00193346 0.00542628 0.00129577 -0.702275
550 2 0.210105 2.74361 134.749 0.0010812 0.00332636 0.00273976 -0.704809
150 1 0.17043 2.85355 137.14 0.000211273 -0.000193095 -0.00330436 1.37282
536 2 0.122106 7.25032 136.362 -0.0003792 -0.00398092 0.00153288 -0.683957
168 1 0.112614 7.26997 134.08 0.00107737 -0.00207503 0.00242747 1.42899
519 2 0.187973 5.12092 138 0.00219492 -0.00577733 -0.00223933 -0.67458
567 2 0.047311 5.00361 133.188 0.0015721 -0.00282569 -0.00194918 -0.687584
496 2 7.85454 7.30452 141.192 0.00270551 -0.00210831 -0.00210552 -0.708014
492 2 3.94431 7.24666 141.214 -0.00316733 -0.00228678 0.00426215 -0.695468
507 2 5.87995 6.15025 139.7 0.00354014 0.000741833 0.00293309 -0.696345
479 2 7.7897 5.03756 142.782 -0.00502147 -0.00306714 -0.00488815 -0.695509
143 1 7.82814 5.06874 140.403 -0.000831358 -0.00049459 -0.00186982 1.37675
495 2 5.91235 3.89741 141.316 -0.00482282 -0.00304827 0.00173256 -0.674167
478 2 5.844 1.59445 142.736 -0.00545565 0.00235321 0.0025226 -0.710636
142 1 5.87199 1.64774 140.47 -0.00171237 -0.00130347 0.000110568 1.38663
139 1 3.96372 5.00087 140.44 -0.000745853 -0.00181205 0.00125087 1.40304
475 2 3.9471 5.0926 142.798 -0.000583481 0.00309915 -0.00513182 -0.692114
506 2 4.04788 2.77753 139.751 -0.00262647 0.00246855 -0.00620564 -0.716985
510 2 7.73943 2.78925 139.614 -0.000869822 0.00542917 0.00499552 -0.664586
474 2 1.92102 1.57202 142.665 -0.0039104 -0.00564175 -0.00199988 -0.722209
138 1 1.99969 1.72466 140.453 -0.00240665 0.000192731 0.0011794 1.39534
491 2 2.0151 4.01526 141.156 0.00282929 0.0099582 0.00425754 -0.741701
503 2 2.00026 6.14751 139.565 -0.00365166 -0.00172722 -0.00495061 -0.660188
544 2 7.83311 7.31686 136.504 -0.0074225 -0.000294425 0.00317427 -0.682878
172 1 3.98827 7.26254 133.996 -5.42863e-05 -0.00182823 0.000151913 1.39998
540 2 4.00688 7.29733 136.378 -0.00387818 -0.00084182 -0.00467312 -0.706456
176 1 7.8533 7.2508 134.001 0.000499348 0.000197935 -0.00351223 1.39792
555 2 5.96372 6.20025 134.844 -0.0044594 -0.000150843 -0.00184445 -0.690717
155 1 5.89893 6.17216 137.174 0.000175345 0.000243765 0.00215287 1.35966
527 2 7.88745 5.02143 137.98 -0.000660612 -0.00460645 -0.00569507 -0.719728
575 2 7.81691 5.14767 133.295 -0.0104682 0.00624937 0.00979607 -0.695916
543 2 6.02391 3.97387 136.357 0.000524364 0.00487067 0.00134167 -0.707238
175 1 5.93454 3.92362 133.997 0.000910863 0.00256413 -0.000193142 1.38058
574 2 5.94614 1.75821 133.224 -0.00412069 0.00268007 -0.00201766 -0.701812
558 2 7.89498 2.74028 134.766 -0.00172717 0.00191091 -0.00400963 -0.715368
526 2 5.91706 1.69295 138.029 0.00156429 -0.00143819 0.00333493 -0.676669
158 1 7.88177 2.94614 137.215 -0.00196059 0.000634686 0.00107827 1.39122
571 2 4.01127 5.10631 133.203 -0.000786288 -0.00561045 0.00130069 -0.714414
523 2 3.91144 5.00347 138.073 -0.00152068 0.00184927 0.00351955 -0.712409
154 1 4.05359 2.82099 137.318 -0.000977132 0.0010519 -3.48779e-05 1.34559
554 2 4.0255 2.85073 134.791 -0.00333359 0.0010585 0.00114963 -0.674312
570 2 2.12123 1.68529 133.213 0.00331357 0.00116217 0.00094554 -0.703264
151 1 2.08594 6.10364 137.113 -0.000493024 -0.00155699 0.00112441 1.41318
171 1 2.09817 3.88799 133.932 6.033e-05 -0.000781826 -0.000198955 1.3544
551 2 2.0677 6.28747 134.759 -0.00296325 -0.00230899 0.000946561 -0.707365
539 2 2.00396 4.02172 136.436 -0.000251498 -0.00142231 0.00544946 -0.71038
522 2 2.13397 1.63506 137.989 0.00463581 0.00368866 5.98578e-05 -0.712496
484 2 11.6942 7.15697 141.332 -0.00237082 -0.00554544 0.00501418 -0.678531
499 2 13.5934 6.22832 139.627 0.00384113 -0.00443638 -0.00121398 -0.684762
487 2 13.7001 4.10601 141.201 -4.00464e-05 0.00335605 0.00241699 -0.692867
470 2 13.7056 1.68192 142.67 0.00274503 0.00155971 0.0072773 -0.716826
134 1 13.6931 1.72385 140.371 -0.000806302 0.0015309 0.000115209 1.37024
467 2 11.7531 4.86896 142.816 -0.00464263 0.00190236 0.0017102 -0.666251
131 1 11.7398 5.06767 140.451 0.000749645 -0.00343609 -0.000401037 1.39795
498 2 11.6778 2.894 139.621 0.00398989 0.0042485 -0.0016564 -0.706087
130 1 9.80704 1.65665 140.372 0.000770476 -0.00225882 -0.000615614 1.41929
511 2 9.6795 6.18223 139.656 -0.00373758 -0.00444038 0.00204075 -0.705761
466 2 9.80711 1.67684 142.816 -0.000136234 -0.00376581 0.00276791 -0.676964
483 2 9.80388 3.81002 141.235 0.00720144 0.00101906 -0.0033864 -0.670345
502 2 15.5598 2.81353 139.54 0.00289385 -0.00712524 0.000966208 -0.714349
583 2 13.5479 3.91695 131.82 -0.00053509 -0.00301146 -0.00162895 -0.689937
580 2 11.6526 7.20042 131.83 0.00419855 6.65833e-06 -0.00214621 -0.679675
166 1 11.7148 0.734708 133.921 -5.15986e-05 0.000468608 0.000181268 1.40629
532 2 11.5621 7.10714 136.365 0.00432601 0.000946656 -0.00109335 -0.694537
164 1 11.6999 7.24659 134.035 0.000610051 -6.89439e-05 -0.00103736 1.42484
147 1 13.6656 6.12907 137.199 -0.000301779 0.00101657 0.000480746 1.37592
535 2 13.7193 3.97027 136.463 0.00365576 0.00286232 -0.00559889 -0.697828
167 1 13.6723 3.96716 134.028 0.000350649 0.00110137 -0.000979416 1.40222
566 2 13.6496 1.59893 133.155 -0.000435612 -0.000588109 0.00138343 -0.699429
518 2 13.6445 1.67301 138.007 -0.00106856 -0.00713545 -0.00193403 -0.69932
515 2 11.8186 5.13409 138.01 -0.00479187 0.00346278 0.00663261 -0.671597
146 1 11.6988 2.75168 137.287 -0.000189254 -0.00323433 0.0007679 1.38066
546 2 11.6836 2.76399 134.888 -0.000487913 0.00147317 -0.00379332 -0.695061
563 2 11.7326 5.09268 133.238 -0.00552834 -0.000373939 -0.00144688 -0.682408
159 1 9.78434 6.17525 137.235 -0.00119618 -0.00338912 0.000861871 1.41343
163 1 9.6969 3.85089 134.063 0.000814385 0.00150123 2.15063e-05 1.39443
562 2 9.84255 1.72882 133.232 -0.00159883 -0.000561222 -0.00269992 -0.71545
531 2 9.85828 3.99801 136.451 -0.00672907 0.0114159 -0.00770082 -0.701988
514 2 9.68768 1.72531 138.087 0.000625965 -0.00378503 -0.00331254 -0.715125
559 2 9.7084 6.12292 134.851 0.000487883 9.46952e-05 0.0049621 -0.671624
468 2 -1.828 8.32997 142.727 0.00555962 -0.00557537 -0.000203866 -0.668386
477 2 -3.83518 11.746 142.814 0.00483032 -0.00278747 0.000296301 -0.69342
132 1 -1.77316 8.3653 140.388 -0.000937953 -0.000709431 0.000139879 1.40161
141 1 -3.86807 11.7041 140.469 -0.00037004 0.000597486 0.000248068 1.3788
481 2 -1.90251 10.5625 141.289 0.00140309 -0.000759098 -0.00389405 -0.676052
465 2 0.127697 11.6274 142.967 0.00716726 -0.0028109 0.00105184 -0.701799
129 1 0.135779 11.7164 140.479 0.00125 0.000992402 0.0021728 1.35613
509 2 -1.8452 12.8279 139.579 -0.00314102 -0.00313128 0.00406852 -0.692378
494 2 -3.86707 13.9236 141.32 -0.00266936 0.00481326 -0.00527716 -0.691824
482 2 0.232896 13.8999 141.224 -0.00211031 0.0010501 0.00298518 -0.706418
500 2 0.11506 9.61179 139.685 0.000201142 0.00658124 0.00158013 -0.677768
560 2 -3.73288 9.49282 134.859 0.00621602 0.00291829 0.000576172 -0.663977
153 1 -5.67339 12.9617 137.245 -0.00227059 0.00364954 -0.00102425 1.41096
553 2 -5.7311 12.8847 134.856 0.00404187 0.00458068 -0.00212281 -0.673556
525 2 -3.75348 11.6381 138.032 -0.00240553 -0.00337258 -0.00281555 -0.707715
516 2 -1.73559 8.46019 138.077 0.00411419 0.00371207 -0.000843227 -0.685469
564 2 -1.80657 8.33169 133.29 -0.0014042 0.00634595 0.000797224 -0.700384
573 2 -3.63468 11.6511 133.307 0.00653313 -0.000922943 -0.0017073 -0.691234
548 2 0.0875316 9.35728 134.825 -0.00310385 -0.000618905 0.00126343 -0.711403
148 1 0.205916 9.58953 137.143 -0.00286081 0.00157381 0.00141389 1.37756
161 1 -1.78843 10.5854 134.025 -0.00249349 -0.000154372 0.00109397 1.41968
529 2 -1.81261 10.6774 136.355 0.0023555 0.000164392 0.00416567 -0.685537
513 2 0.210608 11.7848 137.952 0.000382245 0.00330866 -0.00323628 -0.688838
561 2 0.0266802 11.7631 133.352 -0.00354196 -0.00314772 0.00116394 -0.714655
157 1 -1.87252 12.8219 137.264 -0.000605389 -0.00108149 0.00142899 1.39638
557 2 -1.89291 12.8665 134.888 0.00254125 -0.000834968 0.00173883 -0.684039
530 2 0.166133 13.9834 136.393 -0.00230923 0.00562896 -0.00669937 -0.664712
542 2 -3.74621 13.9135 136.485 0.00362094 0.000779734 0.00319324 -0.694239
174 1 -3.66618 13.9165 134.044 -0.00195902 0.000260744 0.000790116 1.36646
162 1 0.121882 13.9647 134.004 0.000553162 0.00112202 0.000669937 1.38321
476 2 5.94888 8.36171 142.778 0.000881448 0.00429663 0.00347124 -0.689344
140 1 5.89627 8.361 140.409 -0.00162227 -0.00274601 -0.000632139 1.41703
489 2 5.90066 10.5458 141.128 -0.0081141 0.00261425 -0.00689415 -0.666034
137 1 7.8243 11.7298 140.396 -0.00136379 -0.00126938 -0.00119989 1.40976
473 2 7.80521 11.8573 142.743 -0.00041258 -0.00419144 -0.00175222 -0.701459
133 1 3.92824 11.7527 140.311 0.00101316 -0.00461039 -0.000501907 1.39656
469 2 4.08954 11.7756 142.748 -0.00393828 0.00114941 0.00234169 -0.691238
508 2 7.85018 9.59286 139.542 -0.000463837 -0.00644548 0.000220768 -0.693118
504 2 4.00472 9.44407 139.537 -0.00775243 0.00369792 -0.00881056 -0.689276
501 2 5.96964 12.8019 139.682 0.00311331 -0.0060746 0.00413642 -0.688616
472 2 2.06407 8.33561 142.802 0.00607677 0.00518098 -0.00398011 -0.687211
136 1 2.08742 8.32414 140.422 -3.09361e-06 0.000630313 -0.00281818 1.37181
485 2 2.09641 10.6476 141.215 -0.00217931 0.00133327 0.00700522 -0.688214
497 2 2.10087 12.766 139.437 0.00272814 -0.00416859 0.00536455 -0.688691
490 2 7.85201 13.9901 141.107 -0.00327845 -0.00695355 -0.00363796 -0.686758
486 2 3.83982 13.9777 141.033 0.00181385 0.00438433 -0.00285614 -0.708293
572 2 5.94985 8.44621 133.223 0.000592753 0.00155334 0.00335253 -0.670392
556 2 7.87004 9.61957 134.798 -0.00365143 -0.00190857 -0.00479096 -0.690649
524 2 5.88758 8.424 138.128 -0.00598053 0.00762177 0.00123056 -0.699594
156 1 7.77989 9.55542 137.286 -0.000955703 0.00173767 0.00063501 1.40283
537 2 5.87001 10.6893 136.374 0.00587364 0.00151724 0.00559443 -0.674871
169 1 5.94966 10.6862 133.945 0.000995198 -0.000919433 0.00156446 1.40211
521 2 7.76005 11.7444 137.922 -0.0053028 -0.00323046 0.00216111 -0.700385
569 2 7.89253 11.8401 133.273 -0.00424459 -0.000336833 0.00106498 -0.690062
152 1 3.99521 9.52209 137.208 0.00108445 0.00248464 -0.000165648 1.38686
565 2 3.98284 11.8354 133.186 0.00108278 0.00344607 0.00530767 -0.679463
552 2 4.07941 9.47741 134.774 0.00449863 0.00181143 -0.00410848 -0.668753
517 2 4.10756 11.7926 137.977 -0.000956543 0.00157547 0.00646023 -0.685167
149 1 5.95509 12.8654 137.235 0.0011084 0.0016784 -0.00167576 1.42154
549 2 6.01439 12.8832 134.784 0.000788331 0.00104901 -0.000816988 -0.658275
145 1 1.97332 12.9051 137.142 0.000187799 -0.000794129 0.000156373 1.42962
165 1 2.06324 10.6401 133.984 0.000985732 0.0015903 -5.89747e-05 1.34117
545 2 2.08178 12.9737 134.919 0.00146256 -0.00266353 0.00347029 -0.688137
568 2 2.07299 8.37812 133.224 -0.00550181 0.00154778 -0.00397488 -0.674743
533 2 2.08258 10.6444 136.399 0.00358085 -0.0018288 -0.00652699 -0.718086
170 1 7.87021 13.9664 134.026 0.000945388 0.000480891 0.00142939 1.43724
534 2 4.03556 14.042 136.422 0.00721589 0.000149579 -0.00173231 -0.666466
520 2 2.00846 8.37683 137.978 -3.82703e-05 0.00247597 -0.000428183 -0.673251
538 2 7.81443 13.9906 136.328 0.00247666 -0.00124145 0.00509736 -0.690706
480 2 9.7856 8.31829 142.762 0.00170145 -0.00429447 -0.00227118 -0.719758
144 1 9.76669 8.37361 140.458 -0.000525605 -0.000521846 0.000606287 1.41989
505 2 9.71615 12.8526 139.55 0.00266843 -0.00377449 -0.00441494 -0.697598
512 2 11.5928 9.42013 139.68 0.00284895 0.00677597 -0.00295576 -0.70947
493 2 9.78998 10.6071 141.244 0.00327499 0.000629254 -0.00222623 -0.701489
160 1 11.6909 9.56271 137.351 0.000920655 0.00128926 0.000115827 1.361
173 1 9.72738 10.5818 134.05 -0.000667258 0.0010748 -0.00157627 1.40103
576 2 9.7747 8.44003 133.226 0.00108569 -0.00124474 -0.00438991 -0.707156
541 2 9.77197 10.6511 136.509 0.00675896 0.00209863 -0.000436111 -0.656342
528 2 9.72628 8.43486 138.092 0.000770833 0.000578382 0.000271304 -0.677836
589 2 9.67924 10.6862 131.735 0.00160007 -0.00357903 0.00139561 -0.702235
440 2 0.0564845 7.27376 146.006 0.00350617 -0.00170959 0.0050285 -0.68398
120 1 0.0692269 7.24954 143.621 0.00179574 -4.30214e-05 0.0004963 1.3878
87 1 0.102148 5.00068 150.024 0.00340491 -2.00185e-05 0.00315016 1.38981
423 2 0.00274926 4.91036 147.585 -0.00209604 -0.00156868 -0.00396182 -0.700052
375 2 0.172702 4.91411 152.419 0.00738066 0.00412687 0.00161096 -0.717807
72 1 0.0759921 7.2324 153.302 -0.00118151 0.000283892 0.00127541 1.37799
392 2 0.00755258 7.29865 150.782 -0.00414986 0.00043111 -0.00490878 -0.6661
444 2 3.77061 7.19257 146.03 -0.000545438 -0.00165918 0.00267147 -0.678235
448 2 7.83619 7.15971 146.001 0.00357846 0.00299304 0.000150421 -0.700286
124 1 3.92693 7.25016 143.623 0.00123862 -0.000124981 0.000368938 1.37348
128 1 7.84048 7.25416 143.554 -0.00182257 0.00101773 0.000821409 1.38253
459 2 5.87043 6.10137 144.459 0.00818759 0.00948636 0.00340851 -0.698701
447 2 5.81309 3.8221 145.9 -0.00116012 0.000876147 0.00174364 -0.690062
127 1 5.89068 3.88415 143.641 -0.000876171 0.000111927 3.98963e-05 1.38484
462 2 7.80796 2.70993 144.426 -0.00188146 -0.00809686 -0.00470386 -0.711642
458 2 3.83282 2.834 144.471 -0.00396195 0.000193273 0.000121307 -0.691971
123 1 2.01394 3.86633 143.533 0.000916667 0.000212898 0.000751777 1.34545
455 2 1.96925 6.12495 144.509 0.00325224 0.00412812 -0.00951253 -0.65644
443 2 1.88817 3.82781 146.088 -0.00250973 -0.000911839 0.00774364 -0.68945
395 2 2.07238 3.97688 150.798 0.00482679 0.00908526 -0.00152305 -0.693751
407 2 1.96679 6.03447 149.318 -0.00590019 0.00105249 -0.00404643 -0.690761
378 2 1.89418 1.56419 152.313 -0.00500735 0.00520168 -0.00175253 -0.694573
426 2 1.99234 1.6479 147.62 0.00321245 0.00129375 -0.00261931 -0.699983
90 1 1.99364 1.67406 150.081 -0.000805641 9.98603e-05 -0.00352649 1.40941
103 1 2.0521 6.05012 146.89 0.00251997 2.96779e-05 -0.000415823 1.38712
75 1 1.94262 3.88743 153.264 -0.00151229 0.000619618 0.00165653 1.39018
427 2 4.01758 4.98744 147.628 -0.000355853 -0.00202519 -0.00547334 -0.684716
379 2 3.91128 4.98938 152.5 0.0083511 -0.00453249 -0.000853322 -0.67495
106 1 3.88814 2.72958 146.818 -0.00176473 -0.000748223 0.00224999 1.36196
91 1 3.94531 4.95809 150.096 -0.000180766 0.000902846 -0.00179331 1.4231
410 2 3.89319 2.62829 149.405 -0.00236892 0.00163296 -0.00249238 -0.69092
382 2 5.9589 1.74163 152.482 0.00797667 0.00122874 0.00197675 -0.668346
94 1 5.82949 1.56013 150.026 0.000787008 -0.00183979 0.00108112 1.40035
110 1 7.75523 2.7533 146.801 -0.000902758 -1.8086e-05 -0.000276641 1.39712
414 2 7.81203 2.69787 149.273 0.00251164 0.00174549 0.000230684 -0.665112
430 2 5.7841 1.59355 147.591 0.00201996 -0.00341627 0.00941719 -0.679446
79 1 5.85016 3.93848 153.259 -0.00237991 0.000914166 -0.00275411 1.40612
399 2 5.81353 3.8052 150.76 -0.00535549 0.00388885 -0.000792197 -0.687342
95 1 7.79684 4.90837 150.118 -0.00114393 -5.18507e-06 -0.00263774 1.3792
431 2 7.68692 4.81589 147.514 -0.00209083 -0.00244711 0.00145216 -0.708477
383 2 7.85493 4.87297 152.418 0.00203143 -0.00619816 0.0034005 -0.705491
107 1 5.94171 6.07738 146.739 0.000225395 0.00206931 -0.000627961 1.37683
411 2 5.74815 5.99028 149.325 -0.00203442 0.00352245 -0.00144389 -0.674999
76 1 3.90791 7.30241 153.241 -0.00015339 0.00240069 0.00230559 1.4001
80 1 7.90329 7.19744 153.167 -0.0015861 -0.000181142 -0.000622747 1.37734
400 2 7.89928 7.13472 150.737 -0.0016893 0.00736639 0.000467213 -0.724611
396 2 3.90109 7.21311 150.843 0.00103354 -0.00462905 0.00326668 -0.675532
359 2 2.01275 6.15999 154.035 0.000954762 -0.0022522 -0.00201049 -0.699301
347 2 3.90283 2.76834 153.959 0.000685823 -0.00177668 -0.00186492 -0.68293
366 2 7.833 2.7142 154.01 0.00595396 -0.00366305 0.0068247 -0.667907
363 2 5.81267 6.03489 154.021 0.00194766 -0.00472464 -0.00491428 -0.696471
116 1 11.6396 7.22581 143.665 0.00224808 0.00169371 0.00332513 1.40137
436 2 11.6941 7.15476 146.1 0.0026522 0.00198594 6.97634e-05 -0.695771
451 2 13.6127 6.22203 144.396 0.00529902 0.0025735 0.00285945 -0.682813
439 2 13.6152 3.94013 145.98 0.000148259 0.00178591 -0.00133957 -0.682536
119 1 13.6737 3.87382 143.634 0.00126371 -0.00106309 -0.00206491 1.40512
454 2 15.4939 2.76803 144.5 0.00578634 0.00204213 -0.00191521 -0.680752
450 2 11.713 2.85749 144.55 -0.00455753 -0.0010569 -0.00465047 -0.679286
435 2 9.65733 3.96762 146.048 -0.00348905 -0.00217532 0.00484415 -0.713695
463 2 9.86539 6.03981 144.427 0.00212987 0.00115445 -0.00387083 -0.713884
115 1 9.74355 3.86595 143.635 -0.00217797 0.000297585 -0.00193435 1.38207
418 2 9.68402 1.62343 147.637 -0.00176673 0.00391958 0.00306389 -0.66795
370 2 9.82311 1.62056 152.272 0.0082906 -0.000753255 0.000985487 -0.699992
387 2 9.78667 3.82632 150.753 0.00203892 -0.00107181 0.00115405 -0.668963
67 1 9.79474 3.83607 153.253 -0.000933672 -0.000201022 0.00188365 1.39103
415 2 9.7078 6.08354 149.282 0.00659799 -0.00926464 -0.00209457 -0.636066
82 1 9.78294 1.57662 150.032 0.000195021 -0.000900432 -0.00166377 1.39354
111 1 9.69591 5.97594 146.787 0.00117065 -0.00225077 0.00226161 1.42839
402 2 11.6507 2.70834 149.195 -0.0142162 0.000249947 0.00208919 -0.67431
83 1 11.7118 4.98643 150.11 0.000636137 0.00158401 0.00104119 1.40375
419 2 11.504 5.01326 147.654 0.00168838 -0.00135132 0.00100686 -0.679951
98 1 11.6788 2.80012 146.787 0.000393745 -0.000362422 -0.000533927 1.391
371 2 11.7745 4.84246 152.352 0.00198227 9.46981e-06 -0.000867915 -0.688586
422 2 13.5549 1.66725 147.666 0.0037347 0.00159712 -0.00232795 -0.714919
374 2 13.6748 1.577 152.344 0.00117674 -0.00472464 -0.00125349 -0.690886
86 1 13.628 1.63587 150.013 0.00341674 -0.00281109 0.00283334 1.39338
102 1 15.557 2.77849 146.853 0.000226015 6.20561e-05 0.00211418 1.40836
406 2 15.5737 2.7011 149.234 -0.00273461 0.0012784 -0.00209773 -0.709664
391 2 13.6675 3.89954 150.829 0.000401351 0.00154121 0.000495098 -0.706921
71 1 13.7072 3.85913 153.221 -0.000642982 -0.000198959 0.00129045 1.40941
403 2 13.6491 6.2003 149.242 -0.00152814 -0.00873012 0.0110833 -0.691124
99 1 13.6099 6.15557 146.815 -0.000829177 -0.00058242 0.000580267 1.3758
68 1 11.7324 7.20276 153.295 0.00134389 0.000590993 -0.000376649 1.38351
388 2 11.5352 7.08651 150.846 0.0012905 -0.00102956 -0.00601384 -0.707488
367 2 9.72203 5.9755 153.938 -0.00186874 0.00646281 -0.0032635 -0.708468
354 2 11.722 2.75353 154.035 -0.000826811 -0.00657669 0.00809892 -0.674618
358 2 15.4568 2.77542 154.045 -0.00112226 -0.00345387 0.00846148 -0.697858
355 2 13.5603 6.01314 154.012 0.00036246 -0.00227682 2.06125e-05 -0.709235
452 2 0.0694802 9.48402 144.483 -0.00252497 -0.00326776 -0.00820719 -0.680272
433 2 -1.88299 10.5104 146.071 -0.00299492 -0.00181196 0.000645104 -0.689058
113 1 -1.82436 10.5252 143.651 0.00019645 -0.000944416 -0.00246105 1.36976
461 2 -1.86316 12.8435 144.499 -0.00438424 0.00177722 -0.00183619 -0.692803
114 1 0.04699 13.9609 143.647 -0.00026239 -3.02274e-05 -0.000291504 1.39927
126 1 -3.827 13.8695 143.585 7.92777e-05 0.000594652 0.000603379 1.36572