vacancy_slab_319.lmp (written by ASE) 

336 	 atoms 
2  atom types
0.0             15.46428487  xlo xhi
0.0      13.392463548779334  ylo yhi
0.0      145.20516084427391  zlo zhi
    -7.7321424349999983      1.9330356012980947     -1.1160386247625855  xy xz yz


Atoms 

     1   1      5.7991067995487384      1.1160386444809256      143.62684318411581
     2   1      7.7321424082987384      4.4641545316757609      143.62684318411581
     3   1      9.6651780170487385      7.8122704188705914      143.62684318411581
     4   1      11.598213625798738      11.160386306065426      143.62684318411581
     5   1      9.6651780170487385      1.1160386444809256      143.62684318411581
     6   1      11.598213625798738      4.4641545316757609      143.62684318411581
     7   1      13.531249234548739      7.8122704188705914      143.62684318411581
     8   1      15.464284843298739      11.160386306065426      143.62684318411581
     9   1      13.531249234548739      1.1160386444809256      143.62684318411581
    10   1      15.464284843298739      4.4641545316757609      143.62684318411581
    11   1      17.397320452048739      7.8122704188705914      143.62684318411581
    12   1      19.330356060798742      11.160386306065426      143.62684318411581
    13   1      17.397320452048739      1.1160386444809256      143.62684318411581
    14   1      19.330356060798739      4.4641545316757609      143.62684318411581
    15   1      21.263391669548739      7.8122704188705914      143.62684318411581
    16   1      23.196427278298742      11.160386306065426      143.62684318411581
    17   1      3.8660711716303799      2.2320772846127266      140.47020931585124
    18   1      5.7991067803803809      5.5801931718075597      140.47020931585124
    19   1      7.7321423891303809      8.9283090590023946      140.47020931585124
    20   1      9.6651779978803809      12.276424946197228      140.47020931585124
    21   1        7.73214238913038      2.2320772846127266      140.47020931585124
    22   1      9.6651779978803809      5.5801931718075597      140.47020931585124
    23   1      11.598213606630381      8.9283090590023946      140.47020931585124
    24   1      13.531249215380381      12.276424946197228      140.47020931585124
    25   1      11.598213606630377      2.2320772846127266      140.47020931585124
    26   1      13.531249215380383      5.5801931718075597      140.47020931585124
    27   1      15.464284824130381      8.9283090590023946      140.47020931585124
    28   1      17.397320432880377      12.276424946197228      140.47020931585124
    29   1      15.464284824130383      2.2320772846127266      140.47020931585124
    30   1      17.397320432880381      5.5801931718075597      140.47020931585124
    31   1      19.330356041630385      8.9283090590023946      140.47020931585124
    32   1      21.263391650380381      12.276424946197228      140.47020931585124
    33   1      3.8660711524620206  3.7549693902373428e-08      137.31357544758666
    34   1      5.7991067612120224       3.348115924744528      137.31357544758666
    35   1      7.7321423699620215       6.696231811939362      137.31357544758666
    36   1      9.6651779787120233      10.044347699134194      137.31357544758666
    37   1      7.7321423699620215  3.7549693902373428e-08      137.31357544758666
    38   1      9.6651779787120233       3.348115924744528      137.31357544758666
    39   1      11.598213587462023       6.696231811939362      137.31357544758666
    40   1      13.531249196212023      10.044347699134194      137.31357544758666
    41   1      11.598213587462022  3.7549693902373428e-08      137.31357544758666
    42   1      13.531249196212022       3.348115924744528      137.31357544758666
    43   1       15.46428480496202       6.696231811939362      137.31357544758666
    44   1       17.39732041371202      10.044347699134194      137.31357544758666
    45   1      15.464284804962022  3.7549693902373428e-08      137.31357544758666
    46   1       17.39732041371202       3.348115924744528      137.31357544758666
    47   1       19.33035602246202       6.696231811939362      137.31357544758666
    48   1       21.26339163121202      10.044347699134194      137.31357544758666
    49   1      5.7991068966865127      1.1160386776814957      134.15694157932205
    50   1      7.7321425054365127      4.4641545648763286      134.15694157932205
    51   1      9.6651781141865136      7.8122704520711617      134.15694157932205
    52   1      11.598213722936514      11.160386339265997      134.15694157932205
    53   1      9.6651781141865118      1.1160386776814957      134.15694157932205
    54   1      11.598213722936512      4.4641545648763286      134.15694157932205
    55   1      13.531249331686512      7.8122704520711617      134.15694157932205
    56   1      15.464284940436512      11.160386339265997      134.15694157932205
    57   1      13.531249331686512      1.1160386776814957      134.15694157932205
    58   1      15.464284940436512      4.4641545648763286      134.15694157932205
    59   1      17.397320549186514      7.8122704520711617      134.15694157932205
    60   1      19.330356157936514      11.160386339265997      134.15694157932205
    61   1      17.397320549186514      1.1160386776814957      134.15694157932205
    62   1      19.330356157936514      4.4641545648763286      134.15694157932205
    63   1      21.263391766686514      7.8122704520711617      134.15694157932205
    64   1      23.196427375436514      11.160386339265997      134.15694157932205
    65   1      3.8660712687681542       2.232077317813296       131.0003077110575
    66   1      5.7991068775181542        5.58019320500813       131.0003077110575
    67   1      7.7321424862681551       8.928309092202964       131.0003077110575
    68   1      9.6651780950181561      12.276424979397799       131.0003077110575
    69   1      7.7321424862681569       2.232077317813296       131.0003077110575
    70   1      9.6651780950181578        5.58019320500813       131.0003077110575
    71   1      11.598213703768156       8.928309092202964       131.0003077110575
    72   1      13.531249312518158      12.276424979397799       131.0003077110575
    73   1      11.598213703768154       2.232077317813296       131.0003077110575
    74   1      13.531249312518154        5.58019320500813       131.0003077110575
    75   1      15.464284921268154       8.928309092202964       131.0003077110575
    76   1      17.397320530018156      12.276424979397799       131.0003077110575
    77   1      15.464284921268154       2.232077317813296       131.0003077110575
    78   1      17.397320530018156        5.58019320500813       131.0003077110575
    79   1      19.330356138768156       8.928309092202964       131.0003077110575
    80   1      21.263391747518156      12.276424979397799       131.0003077110575
    81   1      3.8660712495997958  7.0750264183626221e-08      127.84367384279291
    82   1      5.7991068583497967      3.3481159579450974      127.84367384279291
    83   1      7.7321424670997967      6.6962318451399314      127.84367384279291
    84   1      9.6651780758497967      10.044347732334767      127.84367384279291
    85   1      7.7321424670997967  7.0750264183626221e-08      127.84367384279291
    86   1      9.6651780758497967      3.3481159579450974      127.84367384279291
    87   1      11.598213684599797      6.6962318451399314      127.84367384279291
    88   1      13.531249293349797      10.044347732334767      127.84367384279291
    89   1      11.598213684599799  7.0750264183626221e-08      127.84367384279291
    90   1      13.531249293349799      3.3481159579450974      127.84367384279291
    91   1      15.464284902099799      6.6962318451399314      127.84367384279291
    92   1      17.397320510849795      10.044347732334767      127.84367384279291
    93   1      15.464284902099799  7.0750264183626221e-08      127.84367384279291
    94   1      17.397320510849795      3.3481159579450974      127.84367384279291
    95   1      19.330356119599799      6.6962318451399314      127.84367384279291
    96   1      21.263391728349795      10.044347732334767      127.84367384279291
    97   1      5.7991067618600134      1.1160385769574299      124.68703997452833
    98   1      7.7321423706100134      4.4641544641522639      124.68703997452833
    99   1       9.665177979360017      7.8122703513470988      124.68703997452833
   100   1      11.598213588110017       11.16038623854193      124.68703997452833
   101   1      9.6651779793600188      1.1160385769574299      124.68703997452833
   102   1      11.598213588110017      4.4641544641522639      124.68703997452833
   103   1      13.531249196860017      7.8122703513470988      124.68703997452833
   104   1      15.464284805610019       11.16038623854193      124.68703997452833
   105   1      13.531249196860017      1.1160385769574299      124.68703997452833
   106   1      15.464284805610017      4.4641544641522639      124.68703997452833
   107   1       17.39732041436001      7.8122703513470988      124.68703997452833
   108   1      19.330356023110017       11.16038623854193      124.68703997452833
   109   1      17.397320414360014      1.1160385769574299      124.68703997452833
   110   1      19.330356023110014      4.4641544641522639      124.68703997452833
   111   1      21.263391631860014      7.8122703513470988      124.68703997452833
   112   1      23.196427240610017       11.16038623854193      124.68703997452833
   113   2      3.8660711714278824 -6.2683340928240691e-08      144.41600274022068
   114   2      5.7991067801778824      3.3481158245114919      144.41600274022068
   115   2      7.7321423889278833      6.6962317117063259      144.41600274022068
   116   2      9.6651779976778833      10.044347598901162      144.41600274022068
   117   2      7.7321423889278815 -6.2683340928240691e-08      144.41600274022068
   118   2      9.6651779976778833      3.3481158245114919      144.41600274022068
   119   2      11.598213606427883      6.6962317117063259      144.41600274022068
   120   2      13.531249215177883      10.044347598901162      144.41600274022068
   121   2      11.598213606427882 -6.2683340928240691e-08      144.41600274022068
   122   2       13.53124921517788      3.3481158245114919      144.41600274022068
   123   2      15.464284823927885      6.6962317117063259      144.41600274022068
   124   2      17.397320432677883      10.044347598901162      144.41600274022068
   125   2      15.464284823927882 -6.2683340928240691e-08      144.41600274022068
   126   2      17.397320432677883      3.3481158245114919      144.41600274022068
   127   2      19.330356041427883      6.6962317117063259      144.41600274022068
   128   2      21.263391650177883      10.044347598901162      144.41600274022068
   129   2      3.8660711521785256      2.2320772065601702      142.83768508006258
   130   2      5.7991067609285256      5.5801930937550042      142.83768508006258
   131   2      7.7321423696785256      8.9283089809498346      142.83768508006258
   132   2      9.6651779784285274      12.276424868144668      142.83768508006258
   133   2      7.7321423696785239      2.2320772065601702      142.83768508006258
   134   2      9.6651779784285257      5.5801930937550042      142.83768508006258
   135   2      11.598213587178526      8.9283089809498346      142.83768508006258
   136   2      13.531249195928526      12.276424868144668      142.83768508006258
   137   2      11.598213587178527      2.2320772065601702      142.83768508006258
   138   2      13.531249195928527      5.5801930937550042      142.83768508006258
   139   2      15.464284804678529      8.9283089809498346      142.83768508006258
   140   2      17.397320413428528      12.276424868144668      142.83768508006258
   141   2      15.464284804678526      2.2320772065601702      142.83768508006258
   142   2      17.397320413428528      5.5801930937550042      142.83768508006258
   143   2      19.330356022178528      8.9283089809498346      142.83768508006258
   144   2      21.263391630928528      12.276424868144668      142.83768508006258
   145   2      5.7991067610095248      1.1160385774484602      141.25936887195607
   146   2      7.7321423697595257      4.4641544646432951      141.25936887195607
   147   2      9.6651779785095258      7.8122703518381282      141.25936887195607
   148   2      11.598213587259526      11.160386239032963      141.25936887195607
   149   2       9.665177978509524      1.1160385774484602      141.25936887195607
   150   2      11.598213587259524      4.4641544646432951      141.25936887195607
   151   2      13.531249196009524      7.8122703518381282      141.25936887195607
   152   2      15.464284804759526      11.160386239032963      141.25936887195607
   153   2      13.531249196009524      1.1160385774484602      141.25936887195607
   154   2      15.464284804759526      4.4641544646432951      141.25936887195607
   155   2      17.397320413509522      7.8122703518381282      141.25936887195607
   156   2      19.330356022259526      11.160386239032963      141.25936887195607
   157   2      17.397320413509522      1.1160385774484602      141.25936887195607
   158   2      19.330356022259526      4.4641544646432951      141.25936887195607
   159   2      21.263391631009526      7.8122703518381282      141.25936887195607
   160   2      23.196427239759526      11.160386239032963      141.25936887195607
   161   2      3.8660711330101671 -4.0502862900435117e-08      139.68105121179798
   162   2       5.799106741760168      3.3481158466919712      139.68105121179798
   163   2      7.7321423505101681      6.6962317338868038      139.68105121179798
   164   2      9.6651779592601681      10.044347621081636      139.68105121179798
   165   2      7.7321423505101681 -4.0502862900435117e-08      139.68105121179798
   166   2      9.6651779592601681      3.3481158466919712      139.68105121179798
   167   2      11.598213568010168      6.6962317338868038      139.68105121179798
   168   2      13.531249176760168      10.044347621081636      139.68105121179798
   169   2      11.598213568010168 -4.0502862900435117e-08      139.68105121179798
   170   2      13.531249176760168      3.3481158466919712      139.68105121179798
   171   2      15.464284785510168      6.6962317338868038      139.68105121179798
   172   2      17.397320394260166      10.044347621081636      139.68105121179798
   173   2      15.464284785510168 -4.0502862900435117e-08      139.68105121179798
   174   2      17.397320394260166      3.3481158466919712      139.68105121179798
   175   2      19.330356003010166      6.6962317338868038      139.68105121179798
   176   2      21.263391611760166      10.044347621081636      139.68105121179798
   177   2      3.8660711330911659      2.2320772175802612      138.10273500369152
   178   2      5.7991067418411664      5.5801931047750966      138.10273500369152
   179   2      7.7321423505911673      8.9283089919699314      138.10273500369152
   180   2      9.6651779593411682      12.276424879164765      138.10273500369152
   181   2      7.7321423505911664      2.2320772175802612      138.10273500369152
   182   2      9.6651779593411682      5.5801931047750966      138.10273500369152
   183   2      11.598213568091168      8.9283089919699314      138.10273500369152
   184   2      13.531249176841168      12.276424879164765      138.10273500369152
   185   2      11.598213568091166      2.2320772175802612      138.10273500369152
   186   2      13.531249176841168      5.5801931047750966      138.10273500369152
   187   2       15.46428478559117      8.9283089919699314      138.10273500369152
   188   2      17.397320394341168      12.276424879164765      138.10273500369152
   189   2      15.464284785591166      2.2320772175802612      138.10273500369152
   190   2      17.397320394341168      5.5801931047750966      138.10273500369152
   191   2      19.330356003091168      8.9283089919699314      138.10273500369152
   192   2      21.263391611841168      12.276424879164765      138.10273500369152
   193   2      5.7991067225918087       1.116038599628939       136.5244173435334
   194   2      7.7321423313418087      4.4641544868237713       136.5244173435334
   195   2      9.6651779400918105      7.8122703740186044       136.5244173435334
   196   2      11.598213548841811      11.160386261213439       136.5244173435334
   197   2      9.6651779400918105       1.116038599628939       136.5244173435334
   198   2      11.598213548841811      4.4641544868237713       136.5244173435334
   199   2      13.531249157591812      7.8122703740186044       136.5244173435334
   200   2      15.464284766341811      11.160386261213439       136.5244173435334
   201   2      13.531249157591811       1.116038599628939       136.5244173435334
   202   2      15.464284766341811      4.4641544868237713       136.5244173435334
   203   2      17.397320375091809      7.8122703740186044       136.5244173435334
   204   2      19.330355983841812      11.160386261213439       136.5244173435334
   205   2      17.397320375091809       1.116038599628939       136.5244173435334
   206   2      19.330355983841809      4.4641544868237713       136.5244173435334
   207   2      21.263391592591812      7.8122703740186044       136.5244173435334
   208   2      23.196427201341812      11.160386261213439       136.5244173435334
   209   2      3.8660712685656566 -2.9482770856149619e-08      134.94610113542691
   210   2      5.7991068773156567      3.3481158577120635      134.94610113542691
   211   2      7.7321424860656576      6.6962317449068962      134.94610113542691
   212   2      9.6651780948156585      10.044347632101733      134.94610113542691
   213   2      7.7321424860656567 -2.9482770856149619e-08      134.94610113542691
   214   2      9.6651780948156567      3.3481158577120635      134.94610113542691
   215   2      11.598213703565657      6.6962317449068962      134.94610113542691
   216   2      13.531249312315657      10.044347632101733      134.94610113542691
   217   2      11.598213703565659 -2.9482770856149619e-08      134.94610113542691
   218   2      13.531249312315659      3.3481158577120635      134.94610113542691
   219   2       15.46428492106566      6.6962317449068962      134.94610113542691
   220   2      17.397320529815662      10.044347632101733      134.94610113542691
   221   2      15.464284921065659 -2.9482770856149619e-08      134.94610113542691
   222   2      17.397320529815662      3.3481158577120635      134.94610113542691
   223   2      19.330356138565659      6.6962317449068962      134.94610113542691
   224   2      21.263391747315662      10.044347632101733      134.94610113542691
   225   2      3.8660712493162999      2.2320772397607396      133.36778347526882
   226   2       5.799106858066299      5.5801931269555727      133.36778347526882
   227   2       7.732142466816299      8.9283090141504058      133.36778347526882
   228   2      9.6651780755663008      12.276424901345241      133.36778347526882
   229   2       7.732142466816299      2.2320772397607396      133.36778347526882
   230   2       9.665178075566299      5.5801931269555727      133.36778347526882
   231   2      11.598213684316299      8.9283090141504058      133.36778347526882
   232   2      13.531249293066301      12.276424901345241      133.36778347526882
   233   2      11.598213684316299      2.2320772397607396      133.36778347526882
   234   2      13.531249293066303      5.5801931269555727      133.36778347526882
   235   2      15.464284901816301      8.9283090141504058      133.36778347526882
   236   2      17.397320510566306      12.276424901345241      133.36778347526882
   237   2      15.464284901816299      2.2320772397607396      133.36778347526882
   238   2      17.397320510566299      5.5801931269555727      133.36778347526882
   239   2      19.330356119316299      8.9283090141504058      133.36778347526882
   240   2      21.263391728066303      12.276424901345241      133.36778347526882
   241   2      5.7991068581472982      1.1160386106490301      131.78946726716234
   242   2      7.7321424668972982      4.4641544978438636      131.78946726716234
   243   2      9.6651780756473009      7.8122703850387003      131.78946726716234
   244   2      11.598213684397299      11.160386272233531      131.78946726716234
   245   2      9.6651780756473009      1.1160386106490301      131.78946726716234
   246   2      11.598213684397301      4.4641544978438636      131.78946726716234
   247   2      13.531249293147303      7.8122703850387003      131.78946726716234
   248   2      15.464284901897301      11.160386272233531      131.78946726716234
   249   2      13.531249293147297      1.1160386106490301      131.78946726716234
   250   2      15.464284901897301      4.4641544978438636      131.78946726716234
   251   2      17.397320510647305      7.8122703850387003      131.78946726716234
   252   2      19.330356119397301      11.160386272233531      131.78946726716234
   253   2      17.397320510647297      1.1160386106490301      131.78946726716234
   254   2      19.330356119397297      4.4641544978438636      131.78946726716234
   255   2      21.263391728147301      7.8122703850387003      131.78946726716234
   256   2      23.196427336897301      11.160386272233531      131.78946726716234
   257   2      3.8660712301479414 -7.3022925081600156e-09      130.21114960700424
   258   2      5.7991068388979414       3.348115879892541      130.21114960700424
   259   2      7.7321424476479423      6.6962317670873759      130.21114960700424
   260   2      9.6651780563979433      10.044347654282209      130.21114960700424
   261   2      7.7321424476479415 -7.3022925081600156e-09      130.21114960700424
   262   2      9.6651780563979415       3.348115879892541      130.21114960700424
   263   2      11.598213665147943      6.6962317670873759      130.21114960700424
   264   2      13.531249273897943      10.044347654282209      130.21114960700424
   265   2      11.598213665147941 -7.3022925081600156e-09      130.21114960700424
   266   2      13.531249273897942       3.348115879892541      130.21114960700424
   267   2      15.464284882647942      6.6962317670873759      130.21114960700424
   268   2      17.397320491397945      10.044347654282209      130.21114960700424
   269   2      15.464284882647942 -7.3022925081600156e-09      130.21114960700424
   270   2      17.397320491397942       3.348115879892541      130.21114960700424
   271   2      19.330356100147945      6.6962317670873759      130.21114960700424
   272   2      21.263391708897945      10.044347654282209      130.21114960700424
   273   2      3.8660712302289402       2.232077250780832      128.63283339889776
   274   2      5.7991068389789406      5.5801931379756651      128.63283339889776
   275   2      7.7321424477289415      8.9283090251705008      128.63283339889776
   276   2      9.6651780564789416      12.276424912365332      128.63283339889776
   277   2      7.7321424477289407       2.232077250780832      128.63283339889776
   278   2       9.665178056478938      5.5801931379756651      128.63283339889776
   279   2      11.598213665228942      8.9283090251705008      128.63283339889776
   280   2      13.531249273978942      12.276424912365332      128.63283339889776
   281   2       11.59821366522894       2.232077250780832      128.63283339889776
   282   2      13.531249273978942      5.5801931379756651      128.63283339889776
   283   2      15.464284882728942      8.9283090251705008      128.63283339889776
   284   2       17.39732049147894      12.276424912365332      128.63283339889776
   285   2       15.46428488272894       2.232077250780832      128.63283339889776
   286   2       17.39732049147894      5.5801931379756651      128.63283339889776
   287   2       19.33035610022894      8.9283090251705008      128.63283339889776
   288   2       21.26339170897894      12.276424912365332      128.63283339889776
   289   2       5.799106819729583      1.1160386328295089      127.05451573873967
   290   2       7.732142428479583      4.4641545200243415      127.05451573873967
   291   2      9.6651780372295839      7.8122704072191747      127.05451573873967
   292   2      11.598213645979586       11.16038629441401      127.05451573873967
   293   2      9.6651780372295839      1.1160386328295089      127.05451573873967
   294   2      11.598213645979584      4.4641545200243415      127.05451573873967
   295   2      13.531249254729584      7.8122704072191747      127.05451573873967
   296   2      15.464284863479586       11.16038629441401      127.05451573873967
   297   2      13.531249254729584      1.1160386328295089      127.05451573873967
   298   2      15.464284863479584      4.4641545200243415      127.05451573873967
   299   2       17.39732047222958      7.8122704072191747      127.05451573873967
   300   2      19.330356080979584       11.16038629441401      127.05451573873967
   301   2      17.397320472229584      1.1160386328295089      127.05451573873967
   302   2      19.330356080979584      4.4641545200243415      127.05451573873967
   303   2      21.263391689729584      7.8122704072191747      127.05451573873967
   304   2      23.196427298479584       11.16038629441401      127.05451573873967
   305   2      3.8660711917302253  1.4878185826946713e-08      125.47619807858158
   306   2      5.7991068004802262      3.3481159020730189      125.47619807858158
   307   2      7.7321424092302262       6.696231789267852      125.47619807858158
   308   2       9.665178017980228      10.044347676462685      125.47619807858158
   309   2      7.7321424092302262  1.4878185826946713e-08      125.47619807858158
   310   2      9.6651780179802262      3.3481159020730189      125.47619807858158
   311   2      11.598213626730228       6.696231789267852      125.47619807858158
   312   2      13.531249235480228      10.044347676462685      125.47619807858158
   313   2      11.598213626730226  1.4878185826946713e-08      125.47619807858158
   314   2       13.53124923548023      3.3481159020730189      125.47619807858158
   315   2       15.46428484423023       6.696231789267852      125.47619807858158
   316   2      17.397320452980228      10.044347676462685      125.47619807858158
   317   2      15.464284844230226  1.4878185826946713e-08      125.47619807858158
   318   2      17.397320452980228      3.3481159020730189      125.47619807858158
   319   2      19.330356061730225       6.696231789267852      125.47619807858158
   320   2      12.396865945639505      6.2351296579566622      59.992911980562305
   321   2      3.8660711918112254      2.2320772729613099      123.89788187047508
   322   2      5.7991068005612254      5.5801931601561439      123.89788187047508
   323   2      7.7321424093112263      8.9283090473509787      123.89788187047508
   324   2      9.6651780180612263      12.276424934545814      123.89788187047508
   325   2      7.7321424093112254      2.2320772729613099      123.89788187047508
   326   2      9.6651780180612263      5.5801931601561439      123.89788187047508
   327   2      11.598213626811226      8.9283090473509787      123.89788187047508
   328   2      13.531249235561226      12.276424934545814      123.89788187047508
   329   2      11.598213626811225      2.2320772729613099      123.89788187047508
   330   2      13.531249235561225      5.5801931601561439      123.89788187047508
   331   2      15.464284844311226      8.9283090473509787      123.89788187047508
   332   2      17.397320453061226      12.276424934545814      123.89788187047508
   333   2      15.464284844311225      2.2320772729613099      123.89788187047508
   334   2       17.39732045306123      5.5801931601561439      123.89788187047508
   335   2      19.330356061811226      8.9283090473509787      123.89788187047508
   336   2      21.263391670561226      12.276424934545814      123.89788187047508
