vacancy_slab_361.lmp (written by ASE) 

672 	 atoms 
2  atom types
0.0             15.46428487  xlo xhi
0.0      13.392463548779334  ylo yhi
0.0       167.3015983600221  zlo zhi
    -7.7321424349999983      1.9330355972249116      1.1160386224109318  xy xz yz


Atoms 

     1   1      5.7991068148336389      3.3481158806035949      165.72328177315759
     2   1      7.7321424235836398      6.6962317677984275      165.72328177315759
     3   1      9.6651780323336407      10.044347654993263      165.72328177315759
     4   1      11.598213641083641      13.392463542188095      165.72328177315759
     5   1      9.6651780323336389      3.3481158806035949      165.72328177315759
     6   1      11.598213641083639      6.6962317677984275      165.72328177315759
     7   1      13.531249249833639      10.044347654993263      165.72328177315759
     8   1      15.464284858583639      13.392463542188095      165.72328177315759
     9   1      13.531249249833641      3.3481158806035949      165.72328177315759
    10   1      15.464284858583641      6.6962317677984275      165.72328177315759
    11   1      17.397320467333646      10.044347654993263      165.72328177315759
    12   1      19.330356076083639      13.392463542188095      165.72328177315759
    13   1      17.397320467333643      3.3481158806035949      165.72328177315759
    14   1      19.330356076083643      6.6962317677984275      165.72328177315759
    15   1      21.263391684833643      10.044347654993263      165.72328177315759
    16   1      23.196427293583639      13.392463542188095      165.72328177315759
    17   1      1.9330355782207371      1.1160386114388665      162.56664692641257
    18   1      3.8660711869707378      4.4641544986337012      162.56664692641257
    19   1      5.7991067957207383      7.8122703858285334      162.56664692641257
    20   1      7.7321424044707383      11.160386273023366      162.56664692641257
    21   1      5.7991067957207365      1.1160386114388665      162.56664692641257
    22   1      7.7321424044707374      4.4641544986337012      162.56664692641257
    23   1      9.6651780132207374      7.8122703858285334      162.56664692641257
    24   1      11.598213621970737      11.160386273023366      162.56664692641257
    25   1      9.6651780132207392      1.1160386114388665      162.56664692641257
    26   1      11.598213621970737      4.4641544986337012      162.56664692641257
    27   1      13.531249230720737      7.8122703858285334      162.56664692641257
    28   1      15.464284839470738      11.160386273023366      162.56664692641257
    29   1      13.531249230720737      1.1160386114388665      162.56664692641257
    30   1      15.464284839470738      4.4641544986337012      162.56664692641257
    31   1      17.397320448220739      7.8122703858285334      162.56664692641257
    32   1      19.330356056970739      11.160386273023366      162.56664692641257
    33   1      3.8660711871881919      2.2320772406293585      159.41001375268354
    34   1      5.7991067959381928      5.5801931278241916      159.41001375268354
    35   1      7.7321424046881928      8.9283090150190247      159.41001375268354
    36   1      9.6651780134381937      12.276424902213861      159.41001375268354
    37   1      7.7321424046881919      2.2320772406293585      159.41001375268354
    38   1      9.6651780134381919      5.5801931278241916      159.41001375268354
    39   1      11.598213622188192      8.9283090150190247      159.41001375268354
    40   1      13.531249230938194      12.276424902213861      159.41001375268354
    41   1      11.598213622188192      2.2320772406293585      159.41001375268354
    42   1      13.531249230938196      5.5801931278241916      159.41001375268354
    43   1      15.464284839688194      8.9283090150190247      159.41001375268354
    44   1      17.397320448438194      12.276424902213861      159.41001375268354
    45   1      15.464284839688192      2.2320772406293585      159.41001375268354
    46   1      17.397320448438194      5.5801931278241916      159.41001375268354
    47   1      19.330356057188194      8.9283090150190247      159.41001375268354
    48   1      21.263391665938197      12.276424902213861      159.41001375268354
    49   1      5.7991067768252913      3.3481158586594644      156.25337890593855
    50   1      7.7321423855752922      6.6962317458542975      156.25337890593855
    51   1      9.6651779943252922      10.044347633049131      156.25337890593855
    52   1      11.598213603075292      13.392463520243965      156.25337890593855
    53   1      9.6651779943252905      3.3481158586594644      156.25337890593855
    54   1       11.59821360307529      6.6962317458542975      156.25337890593855
    55   1      13.531249211825292      10.044347633049131      156.25337890593855
    56   1      15.464284820575292      13.392463520243965      156.25337890593855
    57   1      13.531249211825291      3.3481158586594644      156.25337890593855
    58   1      15.464284820575291      6.6962317458542975      156.25337890593855
    59   1      17.397320429325291      10.044347633049131      156.25337890593855
    60   1      19.330356038075291      13.392463520243965      156.25337890593855
    61   1      17.397320429325291      3.3481158586594644      156.25337890593855
    62   1      19.330356038075291      6.6962317458542975      156.25337890593855
    63   1      21.263391646825291      10.044347633049131      156.25337890593855
    64   1      23.196427255575291      13.392463520243965      156.25337890593855
    65   1      1.9330355595427446      1.1160386006551226      153.09674573220951
    66   1      3.8660711682927449      4.4641544878499566      153.09674573220951
    67   1      5.7991067770427449      7.8122703750447888      153.09674573220951
    68   1      7.7321423857927458      11.160386262239623      153.09674573220951
    69   1       5.799106777042744      1.1160386006551226      153.09674573220951
    70   1      7.7321423857927449      4.4641544878499566      153.09674573220951
    71   1       9.665177994542745      7.8122703750447888      153.09674573220951
    72   1      11.598213603292747      11.160386262239623      153.09674573220951
    73   1       9.665177994542745      1.1160386006551226      153.09674573220951
    74   1      11.598213603292747      4.4641544878499566      153.09674573220951
    75   1      13.531249212042749      7.8122703750447888      153.09674573220951
    76   1      15.464284820792747      11.160386262239623      153.09674573220951
    77   1      13.531249212042745      1.1160386006551226      153.09674573220951
    78   1      15.464284820792745      4.4641544878499566      153.09674573220951
    79   1      17.397320429542745      7.8122703750447888      153.09674573220951
    80   1      19.330356038292745      11.160386262239623      153.09674573220951
    81   1      3.8660711685101994      2.2320772298456144      149.94011255848048
    82   1      5.7991067772602003       5.580193117040448      149.94011255848048
    83   1      7.7321423860102003      8.9283090042352811      149.94011255848048
    84   1      9.6651779947601995      12.276424891430116      149.94011255848048
    85   1      7.7321423860101994      2.2320772298456144      149.94011255848048
    86   1      9.6651779947601995       5.580193117040448      149.94011255848048
    87   1      11.598213603510199      8.9283090042352811      149.94011255848048
    88   1      13.531249212260199      12.276424891430116      149.94011255848048
    89   1      11.598213603510199      2.2320772298456144      149.94011255848048
    90   1      13.531249212260199       5.580193117040448      149.94011255848048
    91   1        15.4642848210102      8.9283090042352811      149.94011255848048
    92   1        17.3973204297602      12.276424891430116      149.94011255848048
    93   1      15.464284821010201      2.2320772298456144      149.94011255848048
    94   1      17.397320429760203       5.580193117040448      149.94011255848048
    95   1        19.3303560385102      8.9283090042352811      149.94011255848048
    96   1        21.2633916472602      12.276424891430116      149.94011255848048
    97   1       5.799106758147297      3.3481158478757203      146.78347771173546
    98   1      7.7321423668972979      6.6962317350705538      146.78347771173546
    99   1       9.665177975647298      10.044347622265386      146.78347771173546
   100   1      11.598213584397298      13.392463509460219      146.78347771173546
   101   1       9.665177975647298      3.3481158478757203      146.78347771173546
   102   1      11.598213584397298      6.6962317350705538      146.78347771173546
   103   1      13.531249193147298      10.044347622265386      146.78347771173546
   104   1      15.464284801897298      13.392463509460219      146.78347771173546
   105   1      13.531249193147296      3.3481158478757203      146.78347771173546
   106   1      15.464284801897298      6.6962317350705538      146.78347771173546
   107   1      17.397320410647303      10.044347622265386      146.78347771173546
   108   1      19.330356019397296      13.392463509460219      146.78347771173546
   109   1      17.397320410647296      3.3481158478757203      146.78347771173546
   110   1      19.330356019397296      6.6962317350705538      146.78347771173546
   111   1      21.263391628147296      10.044347622265386      146.78347771173546
   112   1      23.196427236897296      13.392463509460219      146.78347771173546
   113   1      1.9330355408647519      1.1160385898713785      143.62684453800642
   114   1      3.8660711496147528      4.4641544770662129      143.62684453800642
   115   1      5.7991067583647524      7.8122703642610443      143.62684453800642
   116   1      7.7321423671147542      11.160386251455877      143.62684453800642
   117   1      5.7991067583647524      1.1160385898713785      143.62684453800642
   118   1      7.7321423671147542      4.4641544770662129      143.62684453800642
   119   1      9.6651779758647525      7.8122703642610443      143.62684453800642
   120   1      11.598213584614754      11.160386251455877      143.62684453800642
   121   1      9.6651779758647525      1.1160385898713785      143.62684453800642
   122   1      11.598213584614752      4.4641544770662129      143.62684453800642
   123   1      13.531249193364754      7.8122703642610443      143.62684453800642
   124   1      15.464284802114753      11.160386251455877      143.62684453800642
   125   1      13.531249193364753      1.1160385898713785      143.62684453800642
   126   1      15.464284802114753      4.4641544770662129      143.62684453800642
   127   1      17.397320410864751      7.8122703642610443      143.62684453800642
   128   1      19.330356019614751      11.160386251455877      143.62684453800642
   129   1      3.8660711305018509      2.2320772079014839      140.47020969126143
   130   1      5.7991067392518501      5.5801930950963179      140.47020969126143
   131   1      7.7321423480018501      8.9283089822911528      140.47020969126143
   132   1      9.6651779567518528      12.276424869485986      140.47020969126143
   133   1      7.7321423480018501      2.2320772079014839      140.47020969126143
   134   1      9.6651779567518528      5.5801930950963179      140.47020969126143
   135   1      11.598213565501853      8.9283089822911528      140.47020969126143
   136   1      13.531249174251853      12.276424869485986      140.47020969126143
   137   1      11.598213565501851      2.2320772079014839      140.47020969126143
   138   1      13.531249174251851      5.5801930950963179      140.47020969126143
   139   1      15.464284783001851      8.9283089822911528      140.47020969126143
   140   1      17.397320391751851      12.276424869485986      140.47020969126143
   141   1      15.464284783001851      2.2320772079014839      140.47020969126143
   142   1      17.397320391751851      5.5801930950963179      140.47020969126143
   143   1      19.330356000501851      8.9283089822911528      140.47020969126143
   144   1      21.263391609251851      12.276424869485986      140.47020969126143
   145   1      5.7991067394693054      3.3481158370919761       137.3135765175324
   146   1      7.7321423482193055      6.6962317242868092       137.3135765175324
   147   1      9.6651779569693073      10.044347611481646       137.3135765175324
   148   1      11.598213565719307      13.392463498676477       137.3135765175324
   149   1      9.6651779569693073      3.3481158370919761       137.3135765175324
   150   1      11.598213565719307      6.6962317242868092       137.3135765175324
   151   1      13.531249174469307      10.044347611481646       137.3135765175324
   152   1      15.464284783219309      13.392463498676477       137.3135765175324
   153   1      13.531249174469307      3.3481158370919761       137.3135765175324
   154   1      15.464284783219307      6.6962317242868092       137.3135765175324
   155   1      17.397320391969306      10.044347611481646       137.3135765175324
   156   1      19.330356000719309      13.392463498676477       137.3135765175324
   157   1      17.397320391969306      3.3481158370919761       137.3135765175324
   158   1      19.330356000719306      6.6962317242868092       137.3135765175324
   159   1      21.263391609469309      10.044347611481646       137.3135765175324
   160   1      23.196427218219309      13.392463498676477       137.3135765175324
   161   1      1.9330355028564032       1.116038567927248      134.15694167078738
   162   1      3.8660711116064035       4.464154455122082      134.15694167078738
   163   1      5.7991067203564048       7.812270342316916      134.15694167078738
   164   1      7.7321423291064066      11.160386229511749      134.15694167078738
   165   1      5.7991067203564031       1.116038567927248      134.15694167078738
   166   1      7.7321423291064049       4.464154455122082      134.15694167078738
   167   1       9.665177937856404       7.812270342316916      134.15694167078738
   168   1      11.598213546606404      11.160386229511749      134.15694167078738
   169   1       9.665177937856404       1.116038567927248      134.15694167078738
   170   1      11.598213546606404       4.464154455122082      134.15694167078738
   171   1      13.531249155356402       7.812270342316916      134.15694167078738
   172   1      15.464284764106406      11.160386229511749      134.15694167078738
   173   1      13.531249155356406       1.116038567927248      134.15694167078738
   174   1      15.464284764106406       4.464154455122082      134.15694167078738
   175   1      17.397320372856409       7.812270342316916      134.15694167078738
   176   1      19.330355981606413      11.160386229511749      134.15694167078738
   177   1      3.8660711118238593      2.2320771971177402      131.00030849705837
   178   1      5.7991067205738585      5.5801930843125742      131.00030849705837
   179   1      7.7321423293238594      8.9283089715074091      131.00030849705837
   180   1      9.6651779380738603      12.276424858702244      131.00030849705837
   181   1      7.7321423293238576      2.2320771971177402      131.00030849705837
   182   1      9.6651779380738585      5.5801930843125742      131.00030849705837
   183   1      11.598213546823859      8.9283089715074091      131.00030849705837
   184   1      13.531249155573859      12.276424858702244      131.00030849705837
   185   1      11.598213546823859      2.2320771971177402      131.00030849705837
   186   1      13.531249155573859      5.5801930843125742      131.00030849705837
   187   1       15.46428476432386      8.9283089715074091      131.00030849705837
   188   1       17.39732037307386      12.276424858702244      131.00030849705837
   189   1      15.464284764323859      2.2320771971177402      131.00030849705837
   190   1       17.39732037307386      5.5801930843125742      131.00030849705837
   191   1       19.33035598182386      8.9283089715074091      131.00030849705837
   192   1       21.26339159057386      12.276424858702244      131.00030849705837
   193   1       5.799106701460957      3.3481158151478456      127.84367365031333
   194   1       7.732142310210957      6.6962317023426792      127.84367365031333
   195   1      9.6651779189609588      10.044347589537514      127.84367365031333
   196   1      11.598213527710959      13.392463476732347      127.84367365031333
   197   1       9.665177918960957      3.3481158151478456      127.84367365031333
   198   1      11.598213527710957      6.6962317023426792      127.84367365031333
   199   1      13.531249136460957      10.044347589537514      127.84367365031333
   200   1      15.464284745210959      13.392463476732347      127.84367365031333
   201   1      13.531249136460957      3.3481158151478456      127.84367365031333
   202   1      15.464284745210957      6.6962317023426792      127.84367365031333
   203   1      17.397320353960957      10.044347589537514      127.84367365031333
   204   1      19.330355962710957      13.392463476732347      127.84367365031333
   205   1      17.397320353960957      3.3481158151478456      127.84367365031333
   206   1      19.330355962710957      6.6962317023426792      127.84367365031333
   207   1      21.263391571460957      10.044347589537514      127.84367365031333
   208   1      23.196427180210957      13.392463476732347      127.84367365031333
   209   1      1.9330357161426839      1.1160386910681395       124.6870404765843
   210   1      3.8660713248926841      4.4641545782629732       124.6870404765843
   211   1      5.7991069336426841      7.8122704654578063       124.6870404765843
   212   1      7.7321425423926851      11.160386352652639       124.6870404765843
   213   1       5.799106933642685      1.1160386910681395       124.6870404765843
   214   1      7.7321425423926859      4.4641545782629732       124.6870404765843
   215   1      9.6651781511426851      7.8122704654578063       124.6870404765843
   216   1      11.598213759892689      11.160386352652639       124.6870404765843
   217   1      9.6651781511426851      1.1160386910681395       124.6870404765843
   218   1      11.598213759892685      4.4641545782629732       124.6870404765843
   219   1      13.531249368642685      7.8122704654578063       124.6870404765843
   220   1      15.464284977392685      11.160386352652639       124.6870404765843
   221   1      13.531249368642685      1.1160386910681395       124.6870404765843
   222   1      15.464284977392685      4.4641545782629732       124.6870404765843
   223   1      17.397320586142683      7.8122704654578063       124.6870404765843
   224   1      19.330356194892683      11.160386352652639       124.6870404765843
   225   2       3.866071322011412      2.2320773184695808      166.51244006658985
   226   2       5.799106930761412      5.5801932056644148      166.51244006658985
   227   2      7.7321425395114112      8.9283090928592497      166.51244006658985
   228   2      9.6651781482614147      12.276424980054083      166.51244006658985
   229   2      7.7321425395114121      2.2320773184695808      166.51244006658985
   230   2       9.665178148261413      5.5801932056644148      166.51244006658985
   231   2      11.598213757011413      8.9283090928592497      166.51244006658985
   232   2      13.531249365761415      12.276424980054083      166.51244006658985
   233   2      11.598213757011411      2.2320773184695808      166.51244006658985
   234   2      13.531249365761411      5.5801932056644148      166.51244006658985
   235   2      15.464284974511411      8.9283090928592497      166.51244006658985
   236   2      17.397320583261415      12.276424980054083      166.51244006658985
   237   2      15.464284974511411      2.2320773184695808      166.51244006658985
   238   2      17.397320583261411      5.5801932056644148      166.51244006658985
   239   2      19.330356192011411      8.9283090928592497      166.51244006658985
   240   2      21.263391800761411      12.276424980054083      166.51244006658985
   241   2       1.933035713370139      1.1160386894674101      164.93412347972534
   242   2      3.8660713221201397      4.4641545766622448      164.93412347972534
   243   2      5.7991069308701393      7.8122704638570761      164.93412347972534
   244   2      7.7321425396201402      11.160386351051912      164.93412347972534
   245   2      5.7991069308701393      1.1160386894674101      164.93412347972534
   246   2      7.7321425396201402      4.4641545766622448      164.93412347972534
   247   2       9.665178148370142      7.8122704638570761      164.93412347972534
   248   2      11.598213757120142      11.160386351051912      164.93412347972534
   249   2      9.6651781483701384      1.1160386894674101      164.93412347972534
   250   2       11.59821375712014      4.4641545766622448      164.93412347972534
   251   2      13.531249365870142      7.8122704638570761      164.93412347972534
   252   2       15.46428497462014      11.160386351051912      164.93412347972534
   253   2       13.53124936587014      1.1160386894674101      164.93412347972534
   254   2       15.46428497462014      4.4641545766622448      164.93412347972534
   255   2      17.397320583370139      7.8122704638570761      164.93412347972534
   256   2      19.330356192120139      11.160386351051912      164.93412347972534
   257   2      5.7991069116485106      3.3481159364996871      163.35580521984483
   258   2      7.7321425203985115      6.6962318236945197      163.35580521984483
   259   2      9.6651781291485115      10.044347710889353      163.35580521984483
   260   2      11.598213737898512      13.392463598084186      163.35580521984483
   261   2      9.6651781291485115      3.3481159364996871      163.35580521984483
   262   2      11.598213737898512      6.6962318236945197      163.35580521984483
   263   2      13.531249346648512      10.044347710889353      163.35580521984483
   264   2      15.464284955398512      13.392463598084186      163.35580521984483
   265   2       13.53124934664851      3.3481159364996871      163.35580521984483
   266   2       15.46428495539851      6.6962318236945197      163.35580521984483
   267   2      17.397320564148512      10.044347710889353      163.35580521984483
   268   2      19.330356172898512      13.392463598084186      163.35580521984483
   269   2      17.397320564148512      3.3481159364996871      163.35580521984483
   270   2      19.330356172898512      6.6962318236945197      163.35580521984483
   271   2      21.263391781648512      10.044347710889353      163.35580521984483
   272   2      23.196427390398512      13.392463598084186      163.35580521984483
   273   2      3.8660713030072369      2.2320773074975158      161.77748863298032
   274   2      5.7991069117572378      5.5801931946923498      161.77748863298032
   275   2      7.7321425205072387       8.928309081887182      161.77748863298032
   276   2      9.6651781292572387      12.276424969082015      161.77748863298032
   277   2      7.7321425205072378      2.2320773074975158      161.77748863298032
   278   2      9.6651781292572387      5.5801931946923498      161.77748863298032
   279   2      11.598213738007239       8.928309081887182      161.77748863298032
   280   2      13.531249346757239      12.276424969082015      161.77748863298032
   281   2      11.598213738007237      2.2320773074975158      161.77748863298032
   282   2      13.531249346757237      5.5801931946923498      161.77748863298032
   283   2      15.464284955507237       8.928309081887182      161.77748863298032
   284   2      17.397320564257239      12.276424969082015      161.77748863298032
   285   2      15.464284955507237      2.2320773074975158      161.77748863298032
   286   2      17.397320564257239      5.5801931946923498      161.77748863298032
   287   2      19.330356173007239       8.928309081887182      161.77748863298032
   288   2      21.263391781757239      12.276424969082015      161.77748863298032
   289   2      1.9330356943659646      1.1160386784953449      160.19917204611579
   290   2      3.8660713031159655      4.4641545656901789      160.19917204611579
   291   2      5.7991069118659651      7.8122704528850111      160.19917204611579
   292   2       7.732142520615966      11.160386340079844      160.19917204611579
   293   2      5.7991069118659651      1.1160386784953449      160.19917204611579
   294   2       7.732142520615966      4.4641545656901789      160.19917204611579
   295   2       9.665178129365966      7.8122704528850111      160.19917204611579
   296   2      11.598213738115966      11.160386340079844      160.19917204611579
   297   2       9.665178129365966      1.1160386784953449      160.19917204611579
   298   2      11.598213738115966      4.4641545656901789      160.19917204611579
   299   2      13.531249346865964      7.8122704528850111      160.19917204611579
   300   2      15.464284955615968      11.160386340079844      160.19917204611579
   301   2      13.531249346865968      1.1160386784953449      160.19917204611579
   302   2      15.464284955615968      4.4641545656901789      160.19917204611579
   303   2      17.397320564365966      7.8122704528850111      160.19917204611579
   304   2       19.33035617311597      11.160386340079844      160.19917204611579
   305   2      5.7991069119746923      3.3481159366880084      158.62085545925129
   306   2      7.7321425207246923       6.696231823882842      158.62085545925129
   307   2      9.6651781294746932      10.044347711077675      158.62085545925129
   308   2      11.598213738224693       13.39246359827251      158.62085545925129
   309   2       9.665178129474695      3.3481159366880084      158.62085545925129
   310   2      11.598213738224695       6.696231823882842      158.62085545925129
   311   2      13.531249346974693      10.044347711077675      158.62085545925129
   312   2      15.464284955724695       13.39246359827251      158.62085545925129
   313   2      13.531249346974692      3.3481159366880084      158.62085545925129
   314   2      15.464284955724692       6.696231823882842      158.62085545925129
   315   2      17.397320564474693      10.044347711077675      158.62085545925129
   316   2      19.330356173224693       13.39246359827251      158.62085545925129
   317   2      17.397320564474693      3.3481159366880084      158.62085545925129
   318   2      19.330356173224693       6.696231823882842      158.62085545925129
   319   2      21.263391781974693      10.044347711077675      158.62085545925129
   320   2      23.196427390724693       13.39246359827251      158.62085545925129
   321   2      3.8660713033334195      2.2320773076858371      157.04253887238676
   322   2      5.7991069120834196      5.5801931948806711      157.04253887238676
   323   2      7.7321425208334196      8.9283090820755024      157.04253887238676
   324   2      9.6651781295834205      12.276424969270339      157.04253887238676
   325   2      7.7321425208334196      2.2320773076858371      157.04253887238676
   326   2      9.6651781295834205      5.5801931948806711      157.04253887238676
   327   2      11.598213738333421      8.9283090820755024      157.04253887238676
   328   2      13.531249347083421      12.276424969270339      157.04253887238676
   329   2      11.598213738333419      2.2320773076858371      157.04253887238676
   330   2      13.531249347083421      5.5801931948806711      157.04253887238676
   331   2      15.464284955833422      8.9283090820755024      157.04253887238676
   332   2      17.397320564583421      12.276424969270339      157.04253887238676
   333   2      15.464284955833419      2.2320773076858371      157.04253887238676
   334   2      17.397320564583421      5.5801931948806711      157.04253887238676
   335   2      19.330356173333421      8.9283090820755024      157.04253887238676
   336   2      21.263391782083421      12.276424969270339      157.04253887238676
   337   2      1.9330356753617903      1.1160386675232796      155.46422061250627
   338   2      3.8660712841117908       4.464154554718113      155.46422061250627
   339   2      5.7991068928617908      7.8122704419129469      155.46422061250627
   340   2      7.7321425016117917       11.16038632910778      155.46422061250627
   341   2      5.7991068928617917      1.1160386675232796      155.46422061250627
   342   2      7.7321425016117908       4.464154554718113      155.46422061250627
   343   2        9.66517811036179      7.8122704419129469      155.46422061250627
   344   2      11.598213719111792       11.16038632910778      155.46422061250627
   345   2      9.6651781103617882      1.1160386675232796      155.46422061250627
   346   2       11.59821371911179       4.464154554718113      155.46422061250627
   347   2       13.53124932786179      7.8122704419129469      155.46422061250627
   348   2       15.46428493661179       11.16038632910778      155.46422061250627
   349   2      13.531249327861792      1.1160386675232796      155.46422061250627
   350   2      15.464284936611792       4.464154554718113      155.46422061250627
   351   2       17.39732054536179      7.8122704419129469      155.46422061250627
   352   2       19.33035615411179       11.16038632910778      155.46422061250627
   353   2       5.799106892970519      3.3481159257159425      153.88590402564176
   354   2      7.7321425017205199      6.6962318129107761      153.88590402564176
   355   2       9.665178110470519      10.044347700105611      153.88590402564176
   356   2      11.598213719220519      13.392463587300444      153.88590402564176
   357   2      9.6651781104705172      3.3481159257159425      153.88590402564176
   358   2      11.598213719220517      6.6962318129107761      153.88590402564176