ITEM: TIMESTEP
0
ITEM: NUMBER OF ATOMS
96
ITEM: BOX BOUNDS pp pp pp
0.0000000000000000e+00 1.0934900000000001e+01
0.0000000000000000e+00 1.0934900000000001e+01
0.0000000000000000e+00 1.0934900000000001e+01
ITEM: ATOMS id type x y z vx vy vz q
1 1 0 0 0 -0.00196389 0.00192038 0.00173121 1.39695
2 1 0 2.73373 2.73373 -0.00223213 -0.0018846 -0.00229918 1.39695
3 1 2.73373 0 2.73373 0.000952246 0.00058632 0.0017122 1.39695
4 1 2.73373 2.73373 0 0.001311 -0.000505167 -0.00150899 1.39695
5 2 1.36686 1.36686 4.10059 -0.00339523 0.00419075 0.00631279 -0.698477
6 2 1.36686 4.10059 4.10059 -0.00484851 -0.00192734 -0.00644265 -0.698477
7 2 1.36686 4.10059 1.36686 -0.00313193 -0.00418757 0.00475661 -0.698477
8 2 1.36686 1.36686 1.36686 -0.00404444 0.00591891 -0.0037414 -0.698477
9 2 4.10059 1.36686 1.36686 0.00568294 0.00603397 -0.00268946 -0.698477
10 2 4.10059 4.10059 1.36686 0.00176975 0.000318655 -0.0040994 -0.698477
11 2 4.10059 4.10059 4.10059 0.00542701 -0.0021286 0.00648034 -0.698477
12 2 4.10059 1.36686 4.10059 0.00580735 0.00591178 -0.00612992 -0.698477
49 1 5.46745 0 0 0.00170451 -0.0011415 0.00116683 1.39695
50 1 5.46745 2.73373 2.73373 0.000677467 5.88022e-05 0.000981566 1.39695
51 1 8.20117 0 2.73373 -0.000455805 0.000914513 0.0016893 1.39695
52 1 8.20117 2.73373 0 -0.00224968 -0.00168346 -0.000636442 1.39695
53 2 6.83431 1.36686 4.10059 -0.00347072 0.00302513 -0.005719 -0.698477
54 2 6.83431 4.10059 4.10059 0.00577074 0.00139385 0.000792499 -0.698477
55 2 6.83431 4.10059 1.36686 -0.00559751 -0.00503991 -0.0027011 -0.698477
56 2 6.83431 1.36686 1.36686 -0.00471605 -0.00523979 -0.00332345 -0.698477
57 2 9.56804 1.36686 1.36686 0.00290469 -0.00263253 0.000490119 -0.698477
58 2 9.56804 4.10059 1.36686 -0.00228302 0.00504327 -0.00189924 -0.698477
59 2 9.56804 4.10059 4.10059 -0.0030838 -0.005442 0.00689604 -0.698477
60 2 9.56804 1.36686 4.10059 0.00547997 -0.00658105 0.00380846 -0.698477
13 1 0 0 5.46745 0.00153537 0.0020517 -0.000963446 1.39695
14 1 0 2.73373 8.20117 -0.00218105 0.00111852 0.000126316 1.39695
15 1 2.73373 0 8.20117 -0.00112982 -0.00138184 0.00231372 1.39695
16 1 2.73373 2.73373 5.46745 -0.00112932 0.000282487 0.000835655 1.39695
17 2 1.36686 1.36686 9.56804 0.000887171 0.000113942 -0.0018596 -0.698477
18 2 1.36686 4.10059 9.56804 0.000950201 -0.00222532 0.00287608 -0.698477
19 2 1.36686 4.10059 6.83431 -0.00528896 0.000609671 -0.00613261 -0.698477
20 2 1.36686 1.36686 6.83431 0.00051289 -0.00421098 0.00203323 -0.698477
21 2 4.10059 1.36686 6.83431 0.00557895 -0.00218024 0.00159622 -0.698477
22 2 4.10059 4.10059 6.83431 -0.000763521 -0.00539418 -0.00485091 -0.698477
23 2 4.10059 4.10059 9.56804 0.000347275 -0.00544072 -0.00474988 -0.698477
24 2 4.10059 1.36686 9.56804 -0.00143573 -0.00366693 -0.00365743 -0.698477
61 1 5.46745 0 5.46745 0.00131861 0.000664019 -0.000401855 1.39695
62 1 5.46745 2.73373 8.20117 -0.00029134 0.000265814 -0.00116444 1.39695
63 1 8.20117 0 8.20117 0.000352164 0.000442817 0.00168679 1.39695
64 1 8.20117 2.73373 5.46745 -0.00109537 0.000921853 -0.00201508 1.39695
65 2 6.83431 1.36686 9.56804 0.00434255 0.00384445 0.00529289 -0.698477
66 2 6.83431 4.10059 9.56804 -0.00153677 0.00161427 -0.00448656 -0.698477
67 2 6.83431 4.10059 6.83431 0.000196208 0.00515151 -0.000303308 -0.698477
68 2 6.83431 1.36686 6.83431 0.00286298 -0.0026458 -0.00329199 -0.698477
69 2 9.56804 1.36686 6.83431 0.00533117 0.00122232 0.000467941 -0.698477
70 2 9.56804 4.10059 6.83431 0.0023969 0.00504397 -0.00405074 -0.698477
71 2 9.56804 4.10059 9.56804 0.000522324 -0.00429325 -0.00276085 -0.698477
72 2 9.56804 1.36686 9.56804 0.0026485 -0.0062216 0.00159894 -0.698477
25 1 0 5.46745 0 0.000501087 -0.00153318 0.000858416 1.39695
26 1 0 8.20117 2.73373 0.000550191 -0.000125243 -0.00111285 1.39695
27 1 2.73373 5.46745 2.73373 0.00181993 -0.0012816 -0.000498085 1.39695
28 1 2.73373 8.20117 0 0.00092056 0.00201832 0.00218411 1.39695
29 2 1.36686 6.83431 4.10059 0.000176556 0.00312227 0.00248287 -0.698477
30 2 1.36686 9.56804 4.10059 -0.00372378 -0.002354 -0.00107134 -0.698477
31 2 1.36686 9.56804 1.36686 0.00422924 0.000878695 -0.0029698 -0.698477
32 2 1.36686 6.83431 1.36686 -0.00167215 -0.00243731 0.00181826 -0.698477
33 2 4.10059 6.83431 1.36686 -0.00473069 -0.000534075 0.00302286 -0.698477
34 2 4.10059 9.56804 1.36686 -0.00580995 -0.00635146 -0.000722353 -0.698477
35 2 4.10059 9.56804 4.10059 0.00201725 -0.000500393 0.00242334 -0.698477
36 2 4.10059 6.83431 4.10059 -0.00565345 0.00278008 -0.00605702 -0.698477
73 1 5.46745 5.46745 0 0.0019488 -0.00134389 -7.68914e-06 1.39695
74 1 5.46745 8.20117 2.73373 0.00106077 -0.0019757 0.0022672 1.39695
75 1 8.20117 5.46745 2.73373 0.00102494 0.00136508 -0.00116913 1.39695
76 1 8.20117 8.20117 0 -0.00196135 -3.87242e-05 0.00206785 1.39695
77 2 6.83431 6.83431 4.10059 7.55357e-05 0.00461686 -0.00224114 -0.698477
78 2 6.83431 9.56804 4.10059 -0.00278657 -0.00622286 -0.00163579 -0.698477
79 2 6.83431 9.56804 1.36686 0.000834402 0.00244217 0.00349084 -0.698477
80 2 6.83431 6.83431 1.36686 -0.00443272 0.00293554 -0.000225126 -0.698477
81 2 9.56804 6.83431 1.36686 -0.00430936 -0.00131536 0.00272591 -0.698477
82 2 9.56804 9.56804 1.36686 -0.00518003 0.00494605 -0.00366992 -0.698477
83 2 9.56804 9.56804 4.10059 -0.00528887 -0.00359414 -0.00129366 -0.698477
84 2 9.56804 6.83431 4.10059 0.00468761 -0.00226547 0.00503812 -0.698477
37 1 0 5.46745 5.46745 0.00118325 0.00136625 0.00175639 1.39695
38 1 0 8.20117 8.20117 0.00068813 -0.000510719 -0.00171712 1.39695
39 1 2.73373 5.46745 8.20117 0.000963602 0.00227028 -0.000837691 1.39695
40 1 2.73373 8.20117 5.46745 -0.000341652 -0.00170505 -0.0017183 1.39695
41 2 1.36686 6.83431 9.56804 -0.00326325 0.00405116 -0.00644091 -0.698477
42 2 1.36686 9.56804 9.56804 -0.000765027 0.00401239 0.0029605 -0.698477
43 2 1.36686 9.56804 6.83431 -0.00209018 0.00286904 -0.00463223 -0.698477
44 2 1.36686 6.83431 6.83431 -0.00650322 0.00557818 0.00211663 -0.698477
45 2 4.10059 6.83431 6.83431 0.00510727 -0.00374668 0.00519179 -0.698477
46 2 4.10059 9.56804 6.83431 -0.000375372 -0.0026131 -0.00267811 -0.698477
47 2 4.10059 9.56804 9.56804 0.00420608 0.0017615 0.00535956 -0.698477
48 2 4.10059 6.83431 9.56804 5.85314e-05 0.00166121 0.00584625 -0.698477
85 1 5.46745 5.46745 5.46745 -0.00224741 0.00205362 -0.00108081 1.39695
86 1 5.46745 8.20117 8.20117 0.00126472 -0.000551241 0.000298872 1.39695
87 1 8.20117 5.46745 8.20117 0.00184518 0.000272997 0.000774425 1.39695
88 1 8.20117 8.20117 5.46745 -0.000422711 -0.00148697 -0.00178645 1.39695
89 2 6.83431 6.83431 9.56804 0.00164961 -0.0060321 -0.00650933 -0.698477
90 2 6.83431 9.56804 9.56804 -0.00366646 0.00248256 -0.00621385 -0.698477
91 2 6.83431 9.56804 6.83431 -0.00116019 -0.000857242 0.00349348 -0.698477
92 2 6.83431 6.83431 6.83431 -0.000697358 0.00429912 -0.00101388 -0.698477
93 2 9.56804 6.83431 6.83431 -0.00133703 0.00401994 -0.00285037 -0.698477
94 2 9.56804 9.56804 6.83431 -0.00381348 0.000142179 0.00303809 -0.698477
95 2 9.56804 9.56804 9.56804 -0.00595917 -0.00642285 0.00507301 -0.698477
96 2 9.56804 6.83431 9.56804 1.3516e-05 0.000190656 -0.0053133 -0.698477
ITEM: TIMESTEP
1000
ITEM: NUMBER OF ATOMS
96
ITEM: BOX BOUNDS pp pp pp
-1.8039321462041791e-02 1.0952939321462091e+01
-1.8039321462041791e-02 1.0952939321462091e+01
-1.8039321462041791e-02 1.0952939321462091e+01
ITEM: ATOMS id type x y z vx vy vz q
59 2 9.53474 3.98013 4.17936 0.00372662 -0.00159354 -0.00411555 -0.695133
2 1 10.9414 2.73555 2.72383 -0.000823121 1.49861e-05 -0.00251312 1.35651
16 1 2.77524 2.69941 5.40993 -0.00160516 0.000905568 0.0034428 1.39162
4 1 2.68758 2.79731 0.0394142 0.000650601 -0.00231788 -0.00261509 1.40069
5 2 1.39381 1.37977 3.99287 1.574e-06 -0.00237636 -0.00400748 -0.686818
6 2 1.45858 4.08834 4.22814 0.00420269 0.0043797 -0.0014384 -0.669195
7 2 1.32304 4.09111 1.34039 0.0035229 -0.0014619 0.00123249 -0.720943
8 2 1.52083 1.30569 1.42823 -0.00441358 0.00423568 -0.00606209 -0.687679
9 2 4.08964 1.31386 1.3452 -0.0020366 -0.00360923 0.00426369 -0.661873
10 2 3.94649 4.16821 1.33245 0.00232669 0.0053247 -0.00203267 -0.69874
11 2 4.06261 4.06878 4.1391 -0.00701999 0.00292137 0.00369582 -0.681823
12 2 4.09635 1.20299 4.15456 0.00230955 -0.00731293 -0.0014713 -0.705002
60 2 9.65215 1.29248 4.09065 -0.00126553 0.00501938 0.00984757 -0.69625
50 1 5.44932 2.70394 2.74528 0.000206219 3.3688e-05 -3.55162e-05 1.33051
58 2 9.53596 4.1509 1.36069 0.00253684 0.00286069 0.00100744 -0.725398
57 2 9.61555 1.37251 1.27623 0.00174669 -0.00448779 0.00332061 -0.699385
53 2 6.94212 1.32896 4.10189 -0.00128865 0.00334112 -0.000677049 -0.701653
54 2 6.83519 4.07034 4.12255 0.00241988 -0.00636341 -0.00203534 -0.669808
55 2 6.81992 4.15313 1.44526 -0.00150765 -0.00611531 0.00149356 -0.671294
56 2 6.84108 1.40453 1.16498 -0.00268039 0.00356431 -0.000935852 -0.677666
52 1 8.25111 2.79809 0.00983177 0.000259964 -0.000170786 -0.00270496 1.39818
75 1 8.27899 5.46441 2.76802 -0.00111386 -0.000258765 -0.00111981 1.38953
73 1 5.4131 5.45681 0.00113146 -0.00156629 -0.00125411 -0.00176025 1.37851
25 1 -0.00706804 5.4616 0.0171309 -0.00240187 -0.0011841 -0.000603757 1.37169
51 1 8.2542 -0.0111279 2.71304 -0.00284028 0.000660173 -0.00010161 1.39839
71 2 9.49062 4.07873 9.59498 -0.00336774 -0.00486289 0.00111689 -0.696647
14 1 10.9433 2.71541 8.14275 0.000201329 -0.000886596 -8.85278e-05 1.39235
72 2 9.73313 1.25037 9.58872 -0.00182311 -0.000347359 -0.0033019 -0.678793
39 1 2.77825 5.37508 8.23837 -6.17472e-05 0.000827455 -0.00261919 1.40708
17 2 1.37332 1.44853 9.61166 0.0039377 3.91641e-05 -0.00217338 -0.688468
18 2 1.37342 4.12705 9.52637 0.00362761 0.000118453 0.00835848 -0.700357
19 2 1.34513 4.06257 6.80442 0.00307906 0.00644823 0.00524512 -0.689054
20 2 1.26629 1.30567 6.85865 0.000358787 0.00227409 -0.000909789 -0.713829
21 2 4.11315 1.39244 6.88276 -0.00808647 0.00277236 0.00638917 -0.689103
22 2 4.19028 4.14697 6.77487 0.00219821 0.000522989 -0.00205018 -0.719521
23 2 4.157 4.04623 9.61849 0.000663458 -0.00495898 0.00645412 -0.735535
24 2 4.14039 1.34193 9.57948 0.00488078 -0.00434862 -0.0021294 -0.692819
70 2 9.56597 4.06131 6.8653 -0.000953821 0.00318413 0.00198011 -0.702494
62 1 5.47799 2.75277 8.26095 -0.0011194 7.87439e-05 0.000301704 1.38111
13 1 -0.00286609 0.0203875 5.51022 0.000577038 0.00128202 -0.000154372 1.38973
69 2 9.61746 1.26356 6.82732 0.0058383 0.00517935 0.00598543 -0.701555
65 2 6.87249 1.30922 9.45045 0.000684702 -0.00194868 0.00332954 -0.698813
66 2 6.92935 4.06766 9.62759 -0.00408588 -0.000542941 3.79581e-05 -0.70495
67 2 6.86669 4.08469 6.85453 -1.90511e-05 0.003728 0.00642865 -0.707492
68 2 6.94489 1.30718 6.74066 -0.00248369 -0.00179145 -0.0032704 -0.679141
85 1 5.49002 5.42888 5.53493 -0.00182929 0.00142049 0.00030676 1.39121
64 1 8.19791 2.64778 5.51139 0.00298756 0.00108346 0.000633774 1.41863
49 1 5.45572 0.00658737 10.8638 0.00113599 -0.000509452 -0.000676492 1.42282
87 1 8.2153 5.46516 8.2345 -0.000526245 -0.00171821 -0.00123001 1.39872
84 2 9.55934 6.84967 4.18899 0.000670419 -0.00626258 0.00639679 -0.697506
26 1 10.9326 8.21155 2.70257 0.00184585 0.00168087 0.000266493 1.37243
83 2 9.43146 9.52086 4.15037 0.00237056 -0.00702286 0.000112629 -0.674043
61 1 5.44946 10.9168 5.42833 -0.00181768 -0.00219545 0.000264043 1.39329
29 2 1.18276 6.8417 4.05688 0.00378564 0.00712237 0.00218447 -0.696254
30 2 1.34745 9.58663 4.07859 -0.00390415 0.00152115 0.0102021 -0.706613
31 2 1.28149 9.67795 1.33105 -0.000323144 0.00315616 0.00340297 -0.736028
32 2 1.32372 6.87096 1.39512 0.00642503 -0.00224518 -0.00107754 -0.719316
33 2 4.0692 6.79121 1.32162 0.00328316 0.00463839 0.00157569 -0.703665
34 2 3.97504 9.65931 1.19769 0.00397737 0.00141182 -0.000915655 -0.693271
35 2 4.00462 9.66809 4.04327 0.00175989 0.00223436 0.0065154 -0.706776
36 2 4.14078 6.79506 4.1392 0.00442761 -0.00549454 -0.000163252 -0.68723
82 2 9.41163 9.54841 1.39905 -0.0028031 0.00142347 -0.00111831 -0.700099
74 1 5.49725 8.24192 2.6619 -0.000169447 -7.55359e-06 0.000864153 1.34689
81 2 9.52112 6.8172 1.31478 0.0032605 0.00315168 -0.00184708 -0.695084
88 1 8.17042 8.19364 5.44922 0.00299655 -0.00179011 9.62135e-05 1.43539
77 2 6.9141 6.81815 4.04993 0.00191438 -0.00081434 0.00199638 -0.678888
78 2 6.8126 9.52097 4.05713 0.00148855 -0.0024198 0.00280056 -0.686727
79 2 6.80804 9.69359 1.42243 0.000503594 0.000926744 -0.00187357 -0.670193
80 2 6.74953 6.80243 1.28418 -0.00197141 -0.00156947 0.00177902 -0.673464
3 1 2.66778 10.8765 2.7161 5.20515e-05 0.000959627 -0.000288816 1.45347
27 1 2.7184 5.55065 2.72395 -0.000435859 -0.000934851 -0.000858909 1.38121
93 2 9.53162 6.84239 6.9221 -0.000645615 -0.00436299 -0.00319321 -0.702152
38 1 10.9468 8.20872 8.16049 0.00158461 0.00172657 0.00108382 1.4022
28 1 2.69432 8.23063 10.8914 -0.000333097 0.00110919 0.00126933 1.36614
92 2 6.82616 6.87899 6.77954 0.00610453 0.00584366 -0.00347881 -0.711095
41 2 1.36438 6.80029 9.50529 0.00294004 0.00695918 -0.00544749 -0.662257
42 2 1.34251 9.5875 9.44903 -0.00378987 0.00206908 0.00485253 -0.718421
43 2 1.4562 9.57225 6.82979 0.00150812 0.000562575 0.0022865 -0.699558
44 2 1.27633 6.87936 6.96093 -0.00327932 -0.00674293 -0.00243212 -0.678455
45 2 3.93385 6.89173 6.85345 7.84291e-05 -0.00177965 0.00483909 -0.687352
46 2 4.14359 9.57631 6.86133 -0.00492492 0.00232588 -0.00345378 -0.699545
47 2 4.04885 9.5594 9.49776 0.000111036 -0.00978874 -9.42923e-05 -0.696515
48 2 3.98542 6.80328 9.48599 0.00334017 -0.000517392 0.00471112 -0.687045
96 2 9.54688 6.83053 9.61486 -0.00193825 0.00272216 -0.00600805 -0.68545
86 1 5.44213 8.22263 8.16681 -0.001192 -0.000250537 3.19618e-05 1.39291
94 2 9.51645 9.59975 6.78096 -0.00763982 0.00600365 0.000178871 -0.679228
95 2 9.50145 9.51701 9.54641 0.00915512 -0.00216569 -0.000938268 -0.711588
89 2 6.76477 6.91407 9.45476 0.00719504 0.00467279 0.00419082 -0.693209
90 2 6.84321 9.62972 9.80527 -0.00240318 0.00132654 -0.00286775 -0.716598
91 2 6.80322 9.5649 6.8179 6.28542e-05 -0.000829255 -0.0060786 -0.690499
1 1 0.077199 10.9499 10.9315 -0.000924956 0.000531749 0.000141034 1.37314
76 1 8.21443 8.25302 10.902 0.00136278 1.21508e-05 0.00141207 1.4104
63 1 8.22925 10.9307 8.27993 -0.000143874 0.000313986 0.000844138 1.39771
40 1 2.73097 8.23038 5.51071 -0.000296968 -0.000429922 0.000603672 1.37427
15 1 2.71052 10.951 8.21287 -0.000529719 -0.00127917 -0.00037279 1.40039
37 1 10.9457 5.48235 5.54327 0.00155769 0.00142222 0.000402062 1.37423
ITEM: TIMESTEP
2000
ITEM: NUMBER OF ATOMS
96
ITEM: BOX BOUNDS pp pp pp
-2.2535490138026582e-02 1.0957435490138000e+01
-2.2535490138026582e-02 1.0957435490138000e+01
-2.2535490138026582e-02 1.0957435490138000e+01
ITEM: ATOMS id type x y z vx vy vz q
59 2 9.55318 4.12642 4.22259 -0.00555303 -0.00199415 -0.00689085 -0.711769
2 1 0.0384088 2.69913 2.80928 -0.00155806 0.000832158 0.000261503 1.384
85 1 5.46715 5.45828 5.40923 0.0012623 -9.93265e-05 -5.73915e-05 1.39105
56 2 6.80517 1.31928 1.47642 0.000295561 -0.00375883 -0.00788561 -0.707559
5 2 1.39004 1.3269 3.96486 0.00862022 0.00359032 -0.000503347 -0.702213
6 2 1.35303 4.04725 4.29305 0.00711618 0.0023961 0.00379285 -0.678789
7 2 1.43264 4.14795 1.473 -0.00252172 -0.00303798 -0.00372989 -0.713743
8 2 1.40727 1.32431 1.40932 0.00797224 0.00501519 -0.00156181 -0.690715
9 2 4.08064 1.37321 1.43006 -0.00296914 0.000229149 0.00328255 -0.66634
10 2 4.22741 4.10472 1.34927 -0.00790441 0.00361971 -0.00122603 -0.700371
11 2 4.07741 3.85551 4.01857 -0.00578268 -0.000712797 0.000422657 -0.706737
12 2 4.20782 1.28846 4.14685 -0.00301333 -0.00560197 -0.00378473 -0.690444
60 2 9.64613 1.24703 4.15715 -0.00618071 0.00324637 -0.00354957 -0.717012
50 1 5.51108 2.72354 2.7001 0.00146494 0.00100925 -0.000473603 1.42863
58 2 9.68113 4.1134 1.49083 0.00737514 0.00460856 0.000543982 -0.691821
57 2 9.61524 1.38966 1.43015 -0.00732857 -0.00294307 0.000421715 -0.721062
53 2 6.91582 1.40322 4.12791 -0.00137153 -0.00177058 0.00149384 -0.728992
54 2 6.80184 4.17777 4.03564 0.00191229 0.00575806 -0.00438918 -0.718752
55 2 6.90164 4.19752 1.42718 0.00269626 -0.000682636 0.00303632 -0.700748
52 1 8.34694 2.74494 0.0444812 -0.00113292 -0.000242499 -0.000416019 1.34718
37 1 10.8085 5.45809 5.45899 0.000413614 -0.000638021 -0.000352433 1.40531
4 1 2.72094 2.82495 0.0589749 0.00019662 -0.00191089 -0.00140547 1.40303
16 1 2.79174 2.69721 5.39133 -0.000641333 0.00084542 0.000850981 1.41205
51 1 8.20836 0.0287112 2.70735 0.00100825 0.000490164 -0.00159831 1.42686
1 1 -0.00595394 -0.000542711 -0.0208326 -0.00116809 -0.000330968 0.000522573 1.34282
71 2 9.66701 4.14523 9.65754 -0.000158684 0.00557663 -0.00395003 -0.679603
14 1 0.0239485 2.74607 8.25766 -8.72655e-05 -0.000101832 0.00126761 1.38844
72 2 9.59798 1.49575 9.50838 -0.00151436 0.00234818 0.00381049 -0.688193
87 1 8.1713 5.46479 8.21889 0.000229273 -0.000870482 -0.000281917 1.38995
17 2 1.40418 1.39577 9.59946 -0.00293825 -0.00153786 0.00285866 -0.682229
18 2 1.38133 4.09492 9.75291 -0.0024675 0.0053261 -0.00359135 -0.695682
19 2 1.51291 4.07638 6.92755 -0.00332601 0.0044286 -9.36863e-05 -0.665362
20 2 1.36613 1.39479 6.78987 -0.0058469 -0.00521546 -0.00590822 -0.689153
21 2 4.04771 1.37577 6.95897 -0.00177656 0.000629452 0.0026704 -0.691823
22 2 4.06123 4.18716 6.86023 -0.00187712 -0.00192744 0.00195499 -0.712631
23 2 4.12784 4.08029 9.73602 0.00324208 -0.00379485 0.00882775 -0.702502
24 2 4.15239 1.31689 9.73603 -0.00232741 -0.00219681 0.00375303 -0.681595
70 2 9.62144 3.97171 6.93422 0.000817366 -0.00295619 -0.00280352 -0.686418
62 1 5.49774 2.75076 8.30853 -0.000215401 0.000197895 -0.000902649 1.3754
64 1 8.2025 2.63022 5.48004 -0.000825603 0.000838414 0.00111944 1.40046
69 2 9.43316 1.2356 6.89146 -0.0025178 -2.67517e-05 -0.00141728 -0.657547
65 2 6.80786 1.32127 9.51083 -0.000244221 -1.16122e-05 -0.000220177 -0.693981
66 2 6.94482 4.11056 9.70563 0.0041789 0.00454818 -0.000515352 -0.693022
67 2 6.8005 4.04367 6.91534 -3.88956e-05 0.00598953 0.00190931 -0.669186
68 2 6.85432 1.44886 6.79101 -0.000888874 -0.00124788 -0.00127573 -0.68641
39 1 2.7848 5.37581 8.14653 -0.000379402 -0.000672467 0.000823781 1.3923
15 1 2.75249 0.0613739 8.1032 0.000323748 -3.08163e-05 -0.00064121 1.37062
84 2 9.49889 6.81536 4.18105 -0.000923557 0.00278426 -0.00321831 -0.697663
26 1 10.9411 8.25726 2.67061 -0.000328095 0.00190337 0.0020723 1.37803
83 2 9.66259 9.64743 4.09316 0.00195987 -0.00311827 -0.00814976 -0.691804
61 1 5.55289 10.9564 5.33082 8.16214e-05 -0.0022793 0.0012552 1.39257
29 2 1.27491 6.77367 4.04903 0.00101277 0.000177991 0.00312579 -0.689303
30 2 1.37146 9.52956 4.05116 0.00127125 0.00237775 -0.000732984 -0.692497
31 2 1.29669 9.56859 1.2415 -0.000161955 0.00655091 -0.00258985 -0.711679
32 2 1.35094 6.89106 1.35195 0.00726875 -0.00505177 0.00102863 -0.701839
33 2 4.12039 6.99973 1.33694 0.00389502 0.000381043 0.00396066 -0.70166
34 2 4.07726 9.70576 1.38164 -0.00106249 0.000130523 -0.00517253 -0.693245
35 2 4.09889 9.45796 4.07506 -7.74352e-05 0.00280303 -0.00376903 -0.684056
36 2 4.21768 6.7222 4.13302 0.0038831 -0.00762476 -0.00630391 -0.723138
82 2 9.47672 9.6739 1.36249 0.00413308 0.00144963 0.00411749 -0.707857
74 1 5.44524 8.24171 2.7101 -4.28443e-05 0.00174792 7.33863e-05 1.41109
81 2 9.63485 6.80702 1.43357 -0.00358681 0.00280576 -0.000650286 -0.697717
3 1 2.67736 10.8955 2.65688 -5.3038e-05 0.00017025 0.000184148 1.40829
77 2 6.80735 7.00574 4.13225 0.0057852 0.00152253 -0.000149421 -0.696452
78 2 6.92569 9.68906 4.12121 0.00159079 0.00377338 0.00465136 -0.710451
79 2 6.81743 9.63411 1.35846 0.0117422 0.00122864 -0.00377315 -0.668794
80 2 6.81067 6.94879 1.37536 0.00058205 0.00109548 0.00209468 -0.699203
73 1 5.49412 5.51209 0.0389826 0.000807063 -1.20894e-05 0.000205963 1.39239
75 1 8.15495 5.47698 2.79572 -7.89744e-05 -0.00109493 0.000588388 1.39634
25 1 10.9498 5.491 0.0695983 -0.00159303 -0.00219619 -0.00110503 1.39741
27 1 2.74085 5.52459 2.73019 -3.176e-05 0.00151557 0.000138832 1.3482
13 1 10.9077 10.9037 5.40467 -0.000442832 -0.00130257 -0.000940118 1.40031
93 2 9.60731 6.71378 6.8762 0.00217369 0.00389208 0.00092934 -0.71463
38 1 -0.0151394 8.15321 8.17464 -7.63475e-05 -0.000796501 0.000888384 1.39261
88 1 8.17295 8.18997 5.50273 -0.000663461 0.00037057 -0.00110891 1.38457
92 2 6.93125 6.57634 6.82101 0.00297499 0.000353203 -0.00516851 -0.693387
41 2 1.35165 6.86696 9.49734 0.00962047 -0.0034587 0.000329108 -0.694587
42 2 1.30969 9.6425 9.53933 -0.0051762 -0.00262719 -0.00430171 -0.680194
43 2 1.33201 9.59749 6.6985 0.00965431 0.00296779 0.00207263 -0.693042
44 2 1.33174 6.74974 6.89242 0.0055994 0.00807184 -0.00570382 -0.690838
45 2 4.0998 6.96826 6.7803 -0.00558293 -0.00151268 -7.05555e-05 -0.701466
46 2 4.15195 9.66208 6.75006 0.000826286 -0.00102684 0.00493883 -0.655439
47 2 4.13619 9.55328 9.54828 0.000512659 -0.00355833 -0.00327877 -0.712719
48 2 4.23732 6.76412 9.55354 -0.00452445 -0.00170213 0.00443756 -0.701254
96 2 9.65888 6.85487 9.68568 0.0057555 0.00323107 0.00191829 -0.684485
86 1 5.4224 8.22742 8.27226 -0.000918235 -0.00126742 -0.00158158 1.39553
94 2 9.54084 9.51342 6.84404 0.00119581 0.00213332 -0.00194937 -0.677017
95 2 9.52917 9.46906 9.48367 0.00477812 -0.00187782 -0.000638042 -0.679105
89 2 6.80939 6.98262 9.54003 0.00271542 -0.0021306 0.000611033 -0.702139
90 2 6.81317 9.65864 9.58909 0.000621107 0.00235156 0.00805008 -0.705341
91 2 6.84359 9.57722 6.88096 -0.000787559 -0.00327255 0.000983859 -0.715102
76 1 8.23262 8.23312 10.9229 -0.00168972 0.000813463 0.000864067 1.37736
63 1 8.06616 10.9325 8.20171 0.000726982 -0.00167668 0.000357693 1.41326
28 1 2.6593 8.18439 10.8521 -0.000110513 0.000247481 0.000728587 1.35827
49 1 5.41047 10.9488 10.9323 0.000458378 0.000478727 0.00106901 1.41342
40 1 2.70166 8.11886 5.47069 0.000114607 0.000521109 0.000663039 1.3728
ITEM: TIMESTEP
3000
ITEM: NUMBER OF ATOMS
96
ITEM: BOX BOUNDS pp pp pp
-2.7351655025808164e-02 1.0962251655025753e+01
-2.7351655025808164e-02 1.0962251655025753e+01
-2.7351655025808164e-02 1.0962251655025753e+01
ITEM: ATOMS id type x y z vx vy vz q
59 2 9.5865 3.99892 4.19942 -0.00245772 0.0102477 0.000828869 -0.705509
2 1 0.0140778 2.67897 2.77157 -0.000415883 -0.000271102 0.00174726 1.38343
25 1 0.0604897 5.45411 -0.0106879 0.002184 0.000381535 -0.00125397 1.39302
56 2 6.80079 1.37012 1.38618 -0.00195031 0.00201585 -0.000313297 -0.700525
5 2 1.28938 1.35701 4.15536 -0.00287143 -0.000274006 -0.00344912 -0.697834
6 2 1.24011 4.05405 4.11447 -0.00285248 -0.00137222 0.000161539 -0.692737
7 2 1.35309 4.10823 1.30581 -0.00876298 -0.00188147 0.0017734 -0.735693
8 2 1.44437 1.1976 1.37827 0.000682868 0.00155093 -0.0032844 -0.726294
9 2 4.0941 1.41655 1.32847 0.00138122 -0.000315603 0.0034323 -0.676055
10 2 4.15806 3.99759 1.37269 0.00246835 -0.000155685 -0.0035589 -0.697585
11 2 4.10183 3.94875 4.12073 0.00120693 -0.00957435 -1.55011e-05 -0.699528
12 2 4.14256 1.25446 3.9987 0.00313676 0.00430747 0.000787937 -0.684408
60 2 9.55792 1.23057 4.01228 0.00111125 -0.00332099 0.000200869 -0.680391
50 1 5.48242 2.71804 2.69433 0.00125388 -0.000681152 -0.00169597 1.41465
58 2 9.61714 4.11786 1.40082 0.00815594 0.0014164 0.00163106 -0.672537
57 2 9.67693 1.47061 1.2842 0.0037697 -0.00158416 -0.006703 -0.703964
53 2 6.77519 1.4523 4.14473 0.00488392 -0.00261625 -0.00434239 -0.678902
54 2 6.84039 4.17198 4.26498 0.000286185 0.000246488 -0.00114772 -0.695138
55 2 6.88647 4.10161 1.34694 0.000154031 0.00345384 0.000362883 -0.672721
16 1 2.75831 2.68823 5.39163 0.000733217 0.000373827 -0.000687434 1.39131
4 1 2.69704 2.78506 0.0208178 -0.000495067 0.000622537 0.000610667 1.38733
52 1 8.2621 2.70525 0.0481636 0.000293629 -0.000212468 0.00139259 1.36173
71 2 9.64486 4.07481 9.66674 -0.00152541 -0.000186428 -0.00228224 -0.682602
14 1 0.00420612 2.7104 8.22725 0.000343067 -0.000217856 0.000970714 1.38028
72 2 9.72534 1.26598 9.53719 -0.00287623 -0.000280556 -0.00264553 -0.728458
37 1 10.9388 5.42104 5.52325 0.001969 -0.00165849 -0.000343572 1.40449
17 2 1.37106 1.4304 9.5761 0.00857437 -0.00171161 0.00874493 -0.703167
18 2 1.30386 4.2215 9.47261 -0.00373141 0.00351217 -0.00585655 -0.701255
19 2 1.33707 4.10753 6.71826 -0.000456065 -0.000875609 -0.00505687 -0.659438
20 2 1.42873 1.39474 6.82712 -0.00309452 -0.000622865 0.000830549 -0.689661
21 2 4.18568 1.30985 6.79681 -0.00254978 0.00281083 -0.000626694 -0.693554
22 2 4.06131 4.11243 6.85698 0.00201289 -0.000466458 -0.00388109 -0.68912
23 2 4.02776 4.05065 9.53108 0.00183691 0.00204059 -0.00535064 -0.686424
24 2 4.05707 1.36406 9.68732 -0.00606775 -0.00370333 0.00337134 -0.696187
70 2 9.71846 4.20036 6.9262 0.000291019 -0.00226364 0.00185647 -0.702847
62 1 5.49663 2.70374 8.26024 0.000396625 0.000100461 -0.000913158 1.3654
39 1 2.73256 5.44427 8.20343 -0.000484064 -0.00102343 0.00136238 1.3904
69 2 9.48602 1.36735 6.73821 -0.00186843 -0.0002584 0.00196935 -0.72002
65 2 6.78045 1.31517 9.69598 -0.00240067 -0.00406389 -0.0023495 -0.722447
66 2 6.81039 4.16967 9.61506 0.0035956 -0.00521104 -0.00403715 -0.686457
67 2 6.80855 4.01112 6.94707 -0.00792166 0.00145204 -0.000702379 -0.718419
68 2 6.8495 1.17825 6.78828 0.00107464 -0.00249769 0.000738871 -0.681934
63 1 8.27905 0.00866515 8.2454 -0.000275123 -0.00278033 0.000574508 1.36083
49 1 5.4419 0.0682573 10.9232 -0.00171814 0.00154366 0.000746966 1.40771
85 1 5.51147 5.43631 5.57276 9.64005e-07 0.000977731 -0.000101942 1.38732
64 1 8.18376 2.70754 5.48561 -0.00177568 0.000929582 -8.23582e-05 1.38626
15 1 2.71532 -0.0199238 8.22989 0.000569267 0.00108846 0.00110287 1.3664
61 1 5.44229 0.0093467 5.46846 -9.04516e-05 0.000348787 0.000768817 1.4007
84 2 9.69853 6.93778 4.092 -0.00462396 -0.00144191 -0.00283419 -0.693774
26 1 10.918 8.19016 2.71085 -0.00129631 0.00129173 0.00113808 1.40398
83 2 9.57115 9.59852 3.93276 0.00256309 -0.000215875 -0.00294044 -0.685901
75 1 8.29612 5.51493 2.80372 -0.000517021 -0.000127609 0.00106103 1.34834
29 2 1.45996 6.85232 4.09837 -0.00452426 0.00122732 0.00349585 -0.697317
30 2 1.42188 9.53879 4.13496 0.00056587 -0.0106621 -0.00535265 -0.669613
31 2 1.3959 9.60516 1.25637 -0.00357435 -0.00402849 -0.00691586 -0.68724
32 2 1.34383 6.96608 1.2415 0.00281995 0.00425412 -0.00220476 -0.69472
33 2 3.98244 6.74915 1.39286 0.00192425 -0.000872113 0.0012924 -0.695423
34 2 4.0891 9.60788 1.38975 -0.00214832 -0.000862479 -0.00137196 -0.67747
35 2 4.13311 9.4903 3.94878 -0.000848932 -9.02755e-05 -0.00657681 -0.663729
36 2 4.07111 6.81808 4.0344 -0.00300473 -0.000746607 -7.37376e-05 -0.680279
82 2 9.64768 9.68271 1.27823 -0.00354529 0.000515553 0.00510669 -0.691718
74 1 5.41529 8.25609 2.70113 0.000283069 0.000953638 0.000657039 1.40956
81 2 9.60028 6.88821 1.49381 -0.00316816 -0.00269339 0.00202619 -0.687043
51 1 8.2962 10.9369 2.67612 0.00203575 0.00107496 -0.00093614 1.3777
77 2 6.91463 6.90888 4.10912 -0.00203296 -0.00136415 0.00170023 -0.684715
78 2 6.78553 9.56041 4.0641 -0.00161978 0.00285968 0.00264338 -0.691234
79 2 6.84002 9.59519 1.31742 0.00150198 0.00171528 0.00492228 -0.673998
80 2 6.77975 6.87844 1.23738 -0.00162657 -0.00310827 -0.00234437 -0.675331
27 1 2.7185 5.52519 2.77313 0.000821562 0.00203787 0.00147717 1.37111
3 1 2.65954 10.9579 2.61254 0.000493443 -0.000652051 0.00118033 1.41261
40 1 2.67748 8.18394 5.46183 -0.000161161 -0.00147853 -0.000908246 1.40297
73 1 5.42166 5.50018 -0.0177648 0.00131078 0.00139356 0.00175236 1.39169
93 2 9.49844 7.0086 6.82826 -0.00299068 -0.00621329 -0.000927332 -0.684561
38 1 10.9331 8.16543 8.15269 0.000574745 -0.00260432 -0.0014138 1.42247
1 1 0.0400572 10.9572 10.9014 0.000103981 0.00256215 -0.00118071 1.38812
92 2 6.75737 6.86288 6.72484 -5.21495e-05 -0.0014 0.00188459 -0.715585
41 2 1.24214 6.8267 9.51656 -0.000810995 -0.000415575 0.0025974 -0.701649
42 2 1.42344 9.61978 9.442 -0.00319508 -0.00304834 -0.00626211 -0.717235
43 2 1.20451 9.5733 6.70502 0.00250759 -0.00129771 -0.00170529 -0.698436
44 2 1.31265 6.75635 6.80173 -0.00762847 0.00097358 0.00751487 -0.709109
45 2 4.15101 6.92563 6.828 -0.00154492 0.00484097 0.00104022 -0.731251
46 2 4.01777 9.62933 6.80426 0.00722489 -0.00493215 0.00110946 -0.699815
47 2 4.16071 9.51369 9.57293 -0.00155729 0.00576944 -0.00624744 -0.695384
48 2 4.14111 6.71154 9.64081 -0.00119368 -0.00183061 -0.00317258 -0.724868
96 2 9.5622 6.87213 9.68383 -0.00338781 0.00373868 0.00537314 -0.676027
86 1 5.40902 8.17205 8.12881 -0.00113353 -0.00280539 -0.000143959 1.39661
94 2 9.66525 9.55063 6.81723 -0.00276557 0.00261833 0.0070186 -0.69376
95 2 9.66726 9.44136 9.53131 -0.000693981 -0.00299957 -0.00120048 -0.694773
89 2 6.85684 6.8787 9.50393 -0.00295755 -0.00257845 -0.00189425 -0.689241
90 2 6.83736 9.65464 9.59743 -0.0061816 0.00334684 0.00322087 -0.662703
91 2 6.83926 9.58458 6.9308 0.00156034 -0.00370305 -0.00122019 -0.68554
87 1 8.2122 5.46916 8.29484 -0.000305677 0.000689299 0.00122607 1.35299
88 1 8.0926 8.25363 5.48816 0.000394303 0.0012583 -0.00179898 1.3998
76 1 8.17699 8.24864 10.888 -0.000287894 0.0011531 0.000204661 1.38677
28 1 2.69292 8.18617 10.8728 0.000600281 0.000587205 -0.00141355 1.37075
13 1 10.9421 10.9223 5.54298 0.000506144 -0.0011074 -0.00153594 1.3945
ITEM: TIMESTEP
4000
ITEM: NUMBER OF ATOMS
96
ITEM: BOX BOUNDS pp pp pp
-2.8682310270221834e-02 1.0963582310270194e+01
-2.8682310270221834e-02 1.0963582310270194e+01
-2.8682310270221834e-02 1.0963582310270194e+01
ITEM: ATOMS id type x y z vx vy vz q
59 2 9.66176 3.99248 4.10726 -0.004448 -0.000972274 0.000609902 -0.685035
2 1 10.9593 2.70227 2.71609 0.00106018 -0.000687781 -0.000743385 1.37871
49 1 5.47011 0.0298881 0.0173114 -0.000119925 0.00054191 -0.000868099 1.40726
56 2 6.93223 1.27597 1.3125 -0.00657707 0.00288813 0.00359199 -0.694256
5 2 1.34209 1.31351 3.94685 0.00211663 -0.00815599 -0.00291833 -0.668528
6 2 1.26143 4.15168 4.23384 -0.00257507 -0.00450282 -0.00592107 -0.706872
7 2 1.44277 4.16274 1.4165 -0.000799747 0.00106876 0.00561106 -0.712654
8 2 1.34992 1.3178 1.24427 -0.000371502 0.00090222 0.00685571 -0.716626
9 2 3.99505 1.31839 1.30917 0.00431636 0.00412135 -0.0092939 -0.735923
10 2 4.16597 4.05826 1.29176 0.00778111 0.00122716 -0.00251487 -0.685448