ITEM: TIMESTEP
10000
ITEM: NUMBER OF ATOMS
96
ITEM: BOX BOUNDS pp pp pp
-3.6328146079301682e-02 1.0971228146079291e+01
-3.6328146079301682e-02 1.0971228146079291e+01
-3.6328146079301682e-02 1.0971228146079291e+01
ITEM: ATOMS id type x y z vx vy vz q 
1 1 10.9267 -0.00135413 10.9103 -0.00137858 0.00208048 0.000667292 1.38453 
2 1 -0.0138266 2.76933 2.72266 -0.000933357 -0.00044323 -0.000294092 1.36709 
3 1 2.68823 0.0414806 2.6797 0.000271043 -3.00626e-06 4.58653e-05 1.3774 
4 1 2.84999 2.7013 -0.00261799 0.000560166 -0.000466447 0.000235311 1.36719 
5 2 1.31218 1.32038 4.12998 0.0022379 0.00614669 0.00201419 -0.690087 
6 2 1.3137 4.11936 4.09903 0.00183305 -0.00336644 -0.00390103 -0.694337 
7 2 1.38803 4.15304 1.33762 -0.000656539 -0.00207454 -0.00329528 -0.692838 
8 2 1.34129 1.39855 1.28204 -0.00674088 0.00837274 0.00221329 -0.69877 
9 2 4.18262 1.38688 1.4324 0.00379031 -0.000226427 -0.00658996 -0.713064 
10 2 4.09961 3.98525 1.37399 -0.00561495 0.00135301 0.00385555 -0.6896 
11 2 4.20974 4.08083 4.08101 -0.00418985 0.00496876 -0.000963551 -0.685061 
12 2 4.01403 1.24939 4.12199 -0.000503225 -0.00856659 -0.000112123 -0.690544 
13 1 10.9559 10.952 5.46791 -0.0012716 -0.00128123 -0.000942769 1.36603 
14 1 0.00974909 2.74304 8.24805 -0.00131802 -0.00101416 -0.000978044 1.37546 
15 1 2.67394 10.8736 8.16292 0.00176194 -0.00205028 0.00133949 1.38944 
16 1 2.76566 2.65264 5.51071 0.000604432 0.00124785 -0.00142167 1.35695 
17 2 1.37411 1.37238 9.50291 -0.00182978 -0.00443513 0.00186944 -0.671004 
18 2 1.33112 4.11521 9.61176 0.00245571 0.00325507 0.00336952 -0.684745 
19 2 1.4117 4.20367 6.92206 -9.95966e-05 -0.00449607 0.00102275 -0.66397 
20 2 1.33404 1.3812 6.78883 0.00105984 0.00123738 -0.00114397 -0.694597 
21 2 4.05721 1.2489 6.92203 0.00313356 -0.00584543 -0.00183904 -0.688375 
22 2 4.07899 4.09644 6.84988 -0.00607653 -0.00296751 0.000499789 -0.672594 
23 2 4.10595 4.11059 9.58383 0.00616504 0.00304747 -0.000450047 -0.683138 
24 2 4.07949 1.28101 9.52234 0.00343334 0.00378689 0.00193531 -0.68292 
25 1 -0.0233045 5.43881 -0.0164771 -0.000740657 -0.000179947 0.000318802 1.3624 
26 1 0.0229923 8.27194 2.67011 0.000795371 -0.000673141 -0.0015784 1.38511 
27 1 2.74796 5.40896 2.72145 0.000388327 0.00342095 0.000660991 1.37319 
28 1 2.72611 8.19518 0.0289409 0.00299334 0.00120825 0.00145734 1.38506 
29 2 1.3806 6.76846 4.1195 -0.000525075 -0.0021565 0.00425782 -0.702791 
30 2 1.36601 9.54553 3.97669 -0.00277572 0.00617464 4.71765e-05 -0.703382 
31 2 1.33796 9.67244 1.23301 -0.00141506 -0.00508895 -0.000217996 -0.693125 
32 2 1.31851 6.86874 1.38026 0.00387143 0.000764966 0.00464277 -0.696173 
33 2 4.06858 6.80156 1.2937 0.00475639 0.00612625 0.00741188 -0.701752 
34 2 4.08547 9.63005 1.31431 0.00128973 0.00163314 0.00730172 -0.679533 
35 2 4.17679 9.52712 3.92048 0.000130621 -0.00711808 0.00308361 -0.685225 
36 2 4.22704 6.74575 4.13258 0.00110175 -0.00505725 -0.00294044 -0.726138 
37 1 -0.0135876 5.47018 5.48126 0.00337554 0.00307699 -0.00084065 1.38705 
38 1 10.9557 8.19744 8.17452 -0.000553173 -0.00234854 -0.00035344 1.40623 
39 1 2.67855 5.57989 8.33217 0.00110475 -0.00094335 0.000677809 1.39686 
40 1 2.70893 8.10441 5.38385 0.00112855 -0.000882065 0.000113029 1.3315 
41 2 1.32267 6.89901 9.56687 -0.000960158 -0.00184178 0.00815622 -0.716957 
42 2 1.25966 9.59119 9.49585 0.00127803 -0.00154674 0.00758858 -0.667258 
43 2 1.22148 9.53043 6.85028 -0.0022767 0.00236077 -0.00363297 -0.698353 
44 2 1.31291 6.93139 6.83037 0.00250143 0.00473281 -0.00279787 -0.69575 
45 2 4.05126 6.82897 6.95051 -0.000517044 0.00597198 0.00178063 -0.694775 
46 2 4.23187 9.60929 6.85875 -0.00785025 0.000938443 -0.00268387 -0.717922 
47 2 3.98301 9.60391 9.61539 -0.00504299 0.00142992 0.00588687 -0.697735 
48 2 4.08362 6.79125 9.75787 -0.00145331 0.00636331 0.00725005 -0.706344 
49 1 5.42083 0.00511998 10.9522 0.000276499 0.00197005 -0.000150562 1.36515 
50 1 5.55234 2.72578 2.72518 0.000395058 0.00128046 0.0011547 1.42469 
51 1 8.23862 -0.00820322 2.6536 -0.00034076 0.00134257 0.00121905 1.35768 
52 1 8.19969 2.71712 0.0103114 -0.00282947 -0.000414572 0.000616048 1.40965 
53 2 6.83114 1.37255 4.07083 0.00312359 0.0012838 -0.00188679 -0.678446 
54 2 6.71915 4.10217 4.05428 -0.0033137 0.00227904 0.00106637 -0.701951 
55 2 6.83085 3.99499 1.32127 -0.00502555 -0.00873956 0.000850492 -0.699723 
56 2 6.89043 1.33347 1.25654 -0.000643689 -0.00304065 -0.00318562 -0.694074 
57 2 9.53567 1.41402 1.31429 0.00781242 -0.00154754 -0.000796043 -0.703991 
58 2 9.56314 4.11297 1.39329 -0.000736331 -0.00207798 -0.00460488 -0.700351 
59 2 9.54874 4.09511 4.09792 -0.00185382 -0.000118955 -0.00363329 -0.688164 
60 2 9.61568 1.47166 4.17074 0.00194997 -0.00637292 -0.00473005 -0.666977 
61 1 5.42202 10.9043 5.50605 -0.000523102 0.000518004 -0.00298447 1.39581 
62 1 5.44226 2.73137 8.19142 0.000188711 -0.000379117 -0.000689993 1.39038 
63 1 8.117 -0.0254136 8.10692 0.00100138 -0.00383957 0.00211471 1.38692 
64 1 8.19767 2.76696 5.51059 -0.00172982 -0.00158879 -0.00200128 1.37203 
65 2 6.84406 1.36635 9.51257 0.00330445 0.00342603 -0.00642269 -0.678749 
66 2 6.79148 4.06401 9.65628 -0.002303 0.00848695 -0.00824134 -0.696144 
67 2 6.78111 4.07364 6.85983 -3.34107e-05 -0.000438475 -0.00272104 -0.714564 
68 2 6.71095 1.22838 6.79364 0.00201721 0.00523619 -0.00101365 -0.705238 
69 2 9.45988 1.38496 6.91112 -0.00708394 0.00352988 -0.00437997 -0.680761 
70 2 9.659 4.0658 6.83184 0.000206269 0.00238452 0.0036891 -0.684015 
71 2 9.59028 4.09657 9.63861 0.00114589 -0.00180601 0.00181247 -0.697537 
72 2 9.58054 1.30932 9.59209 -0.005843 0.00803406 -0.000337929 -0.675862 
73 1 5.52702 5.50167 10.9473 -0.000339473 -0.000343283 -0.000532735 1.39845 
74 1 5.44183 8.19625 2.72687 -0.00066256 -0.000471137 0.00105909 1.40426 
75 1 8.24217 5.47664 2.72925 -0.00178791 -5.84217e-05 -0.00284005 1.37649 
76 1 8.22084 8.22985 10.9691 -0.00025097 0.00147778 0.00180393 1.37794 
77 2 6.85292 6.92828 3.97153 7.16999e-05 -0.00410222 -0.00242382 -0.688172 
78 2 6.80608 9.57789 4.10587 0.00551295 0.00222663 -0.00025334 -0.657478 
79 2 6.82803 9.683 1.45102 0.000153205 -0.00582383 0.00417506 -0.6738 
80 2 6.87587 6.79973 1.26068 0.000232444 0.00464878 -0.00120531 -0.708159 
81 2 9.61715 6.89783 1.40725 0.00592655 0.000772459 -0.000404073 -0.671281 
82 2 9.66145 9.61143 1.24058 0.00671791 0.00861378 0.00183842 -0.694703 
83 2 9.65354 9.65791 4.09621 -0.000120862 -0.0021016 0.00666008 -0.692742 
84 2 9.58163 6.90054 4.07947 -0.001167 -0.00280967 0.00382994 -0.680333 
85 1 5.43813 5.45236 5.46057 0.000751157 0.000492113 0.00226128 1.39032 
86 1 5.44073 8.24503 8.27244 0.00143337 -0.000323232 -0.000304707 1.39171 
87 1 8.2093 5.47276 8.2776 0.00163353 -0.000262511 -0.00130451 1.39511 
88 1 8.22831 8.18063 5.46293 -0.000948302 -0.00329741 -0.00166815 1.36659 
89 2 6.76352 6.84012 9.45758 -0.00437422 -0.00650948 0.00265254 -0.699237 
90 2 6.82261 9.55579 9.61354 0.00480181 -0.003075 -0.00314444 -0.693499 
91 2 6.85992 9.53619 6.91741 -0.00885735 0.000567545 -0.00247549 -0.697459 
92 2 6.93471 6.81972 6.86587 -0.00419789 -0.00332413 0.00270035 -0.667197 
93 2 9.58585 6.70893 6.83757 6.25896e-05 -0.000850351 0.00362824 -0.695473 
94 2 9.61742 9.5713 6.85452 -0.0078785 0.00984941 0.00176395 -0.695592 
95 2 9.59668 9.51971 9.61881 -0.0017056 0.00190674 0.000580933 -0.660251 
96 2 9.42842 6.79762 9.63514 -0.00517023 0.00318484 0.000499056 -0.693916 
ITEM: TIMESTEP
11000
ITEM: NUMBER OF ATOMS
96
ITEM: BOX BOUNDS pp pp pp
-3.6328146079301682e-02 1.0971228146079291e+01
-3.6328146079301682e-02 1.0971228146079291e+01
-3.6328146079301682e-02 1.0971228146079291e+01
ITEM: ATOMS id type x y z vx vy vz q 
1 1 10.9667 -0.00323333 10.9026 -0.00160221 0.000997956 -0.00256054 1.38789 
2 1 0.026921 2.68877 2.69263 0.000652185 -0.000414536 -0.00175009 1.387 
3 1 2.72874 -0.0246219 2.71197 -0.00140424 0.00282643 0.00165253 1.41494 
4 1 2.70911 2.64668 10.9384 0.000499577 0.00260818 -0.00138787 1.37157 
5 2 1.30507 1.27831 4.04417 -0.00452952 -0.000276732 -0.00264387 -0.685016 
6 2 1.34157 4.02231 4.13963 0.000254999 -0.00601861 -0.00407679 -0.703118 
7 2 1.50415 3.99933 1.32216 0.00176294 0.00390249 0.00509633 -0.689359 
8 2 1.3791 1.26876 1.25616 -0.00155918 -0.00207176 0.005916 -0.703392 
9 2 4.16087 1.15477 1.37114 0.00889101 0.00309606 0.00400915 -0.673645 
10 2 4.18218 3.95781 1.43335 -0.00561462 0.0056511 0.00421974 -0.673335 
11 2 4.21259 4.04357 4.12574 -0.000492228 -0.000185225 0.00459678 -0.682103 
12 2 4.12159 1.29985 4.03968 -0.00865057 -0.00617775 0.000688847 -0.684439 
13 1 10.9634 0.0294393 5.52266 0.000958835 -0.000473088 -0.00201681 1.3816 
14 1 -0.0239551 2.72677 8.20608 -0.0015937 -0.000872048 0.00143449 1.374 
15 1 2.6936 10.8644 8.23178 0.00105198 -0.00298384 0.000924814 1.37857 
16 1 2.73815 2.75967 5.51761 -0.0029854 0.000488783 0.00130113 1.404 
17 2 1.33119 1.37392 9.65119 0.00109592 0.000823598 0.00322954 -0.703771 
18 2 1.28681 4.06017 9.64886 -0.000983515 0.00181025 -0.00378612 -0.685595 
19 2 1.3034 4.16804 6.87837 -0.00505761 -0.0047319 0.00357735 -0.696234 
20 2 1.45074 1.52619 6.73237 -0.00121124 0.00245408 0.000615811 -0.701437 
21 2 4.1468 1.4093 6.88827 0.00115655 0.00958434 0.00446851 -0.676968 
22 2 3.92893 4.04749 6.93111 -0.00248378 -0.0038575 0.00411644 -0.679425 
23 2 4.07412 4.12996 9.58585 7.21352e-05 -0.00485433 -0.00223131 -0.69628 
24 2 4.10291 1.09098 9.60983 -0.00481328 0.00445571 -0.00266554 -0.725278 
25 1 10.9588 5.47545 10.9678 0.00127599 -0.00143712 0.00205233 1.39001 
26 1 10.9644 8.14976 2.72265 0.00182685 -3.64096e-05 -0.000849344 1.38052 
27 1 2.69272 5.40312 2.73563 9.59974e-05 -0.000949553 -0.00262857 1.36529 
28 1 2.65295 8.2498 10.966 -0.00150216 0.00373102 0.000780645 1.38153 
29 2 1.26627 6.75174 4.1133 0.00362104 -0.00623195 -0.00517834 -0.704052 
30 2 1.37739 9.63421 4.04635 0.00120018 0.000824699 -0.00425035 -0.69268 
31 2 1.32948 9.51764 1.32387 0.00134643 -0.00251903 -0.00254573 -0.679441 
32 2 1.18024 6.8051 1.45471 0.00157021 0.00114377 0.00430925 -0.699877 
33 2 4.11811 6.80744 1.45318 0.00137282 0.00619946 -0.00283685 -0.67303 
34 2 4.11274 9.4823 1.38076 -0.000171178 -0.00381462 0.00155311 -0.676523 
35 2 4.00742 9.65467 4.05229 0.00376707 -0.00182651 0.000314617 -0.672155 
36 2 4.01765 6.74096 4.17783 -0.00367912 -0.0056511 0.00664535 -0.683421 
37 1 10.9506 5.41973 5.49476 0.00178059 0.00274903 0.00187188 1.37246 
38 1 10.9221 8.26734 8.14425 -0.000618292 -0.00170202 -6.1632e-05 1.40086 
39 1 2.71448 5.4732 8.27713 0.000540339 0.00175142 -0.00132611 1.38274 
40 1 2.61488 8.22815 5.36844 -0.00189475 -0.000454379 0.000819351 1.35467 
41 2 1.29617 6.85935 9.6598 -0.00592439 -0.0016217 0.00891979 -0.689583 
42 2 1.27949 9.62362 9.46893 -0.000497475 -0.00104826 0.000137554 -0.708864 
43 2 1.19209 9.68542 6.84694 -0.00274276 -0.00173577 0.00215012 -0.713442 
44 2 1.30228 6.99704 6.94619 0.0025276 -0.00994804 0.00595699 -0.686041 
45 2 4.01339 6.84464 6.80808 0.00109581 0.00250819 0.00595402 -0.682026 
46 2 4.05826 9.72641 6.80836 -0.000161837 -0.00411398 -0.00424369 -0.710983 
47 2 3.998 9.47709 9.65993 -0.014499 0.00312528 -0.00756241 -0.715981 
48 2 4.00813 6.87094 9.66137 0.00904497 -0.00294164 -0.000839382 -0.656064 
49 1 5.3851 10.9499 10.8748 0.000376226 0.000536175 6.62329e-05 1.38942 
50 1 5.57233 2.6874 2.77837 0.00139467 -7.62891e-05 -0.000181216 1.40591 
51 1 8.24074 10.9344 2.67912 -0.000863581 0.00311774 0.000682677 1.37721 
52 1 8.24261 2.74314 -0.0177491 0.000245666 -0.00117784 -0.00285836 1.39013 
53 2 6.901 1.37544 4.00746 0.00113243 0.0037073 0.00317511 -0.694196 
54 2 6.89617 4.16479 4.08707 5.69646e-05 -0.00148973 0.00436269 -0.684922 
55 2 6.95198 4.00274 1.44179 0.00450108 -0.00425028 -0.00774028 -0.700971 
56 2 6.83959 1.31435 1.19457 0.000652836 0.0119429 -0.00187476 -0.649601 
57 2 9.58757 1.40024 1.32845 0.000787621 -0.00257225 -0.00684987 -0.690982 
58 2 9.77788 4.0605 1.34335 0.00205581 -0.00113005 0.00478382 -0.702095 
59 2 9.64102 4.08903 4.10776 0.00245019 -0.000958381 0.00579494 -0.692064 
60 2 9.55727 1.37965 4.06638 -0.000395884 -0.000129675 -0.000298213 -0.665609 
61 1 5.44718 -0.00955516 5.51025 0.000703433 -0.00293207 0.000178548 1.39976 
62 1 5.47546 2.72864 8.22979 -0.00138738 0.000607344 0.00066163 1.36971 
63 1 8.26526 -0.0295549 8.17933 0.000862451 0.000887867 -0.00095833 1.41916 
64 1 8.22691 2.74691 5.50477 -0.000674861 0.000916576 -0.000629413 1.39251 
65 2 6.83015 1.47483 9.52625 0.00237506 0.00283073 0.00565665 -0.682636 
66 2 6.84303 4.12565 9.76475 0.0027513 -0.00334902 -0.00381981 -0.719158 
67 2 6.70441 4.10297 6.78443 -0.0019028 -0.00297814 -0.00535057 -0.713322 
68 2 6.87761 1.36794 6.76335 -0.00084604 -0.00399587 -0.00101693 -0.68968 
69 2 9.61491 1.28481 6.87527 0.00102407 -0.00626941 -0.00234486 -0.710589 
70 2 9.50412 3.99592 6.85439 -0.00149403 -0.00244758 0.00168799 -0.724096 
71 2 9.59486 4.21976 9.58084 0.00576384 0.000183359 0.0028802 -0.703155 
72 2 9.59989 1.3636 9.54576 0.00204215 -0.0012464 0.000883528 -0.696049 
73 1 5.56618 5.38979 0.0525468 0.00167312 -0.0014309 -0.000641085 1.37507 
74 1 5.46273 8.2015 2.68102 -0.00149839 -0.000897025 0.000366733 1.37772 
75 1 8.32585 5.46188 2.77148 -0.000994819 -0.000730642 -0.00136277 1.37409 
76 1 8.23894 8.29575 10.9571 0.00208943 0.00101415 -0.000588604 1.37467 
77 2 6.91231 6.81596 4.10718 -0.00465082 0.00585564 -0.000518583 -0.688007 
78 2 6.76903 9.54161 4.03721 0.00540643 -0.00264668 0.00256588 -0.678443 
79 2 6.86125 9.70851 1.36837 -0.00665572 -0.00517988 0.00698004 -0.690079 
80 2 6.79146 6.79841 1.33798 -0.00397242 -0.000500884 -0.00292072 -0.688257 
81 2 9.54404 6.90551 1.33595 0.0128419 0.00195857 0.00992355 -0.69229 
82 2 9.66345 9.58152 1.30222 -0.00480175 0.000119471 -0.00298639 -0.694197 
83 2 9.52801 9.58835 4.14796 0.00458811 0.00122251 -0.00356896 -0.700502 
84 2 9.64253 6.75588 4.2152 0.00494763 0.0051333 -0.00683588 -0.702122 
85 1 5.51836 5.50041 5.4502 -0.00109191 0.0014498 0.00244682 1.38037 
86 1 5.39596 8.21373 8.14964 -0.000509183 -0.00139838 -0.000143713 1.36171 
87 1 8.21967 5.45221 8.25589 0.000578797 -0.0029466 0.000463336 1.34275 
88 1 8.20365 8.30002 5.47293 0.00197002 -0.00105282 0.00169561 1.39854 
89 2 6.72926 6.87964 9.57389 -0.00333581 0.00170561 0.000426803 -0.650185 
90 2 6.90585 9.55287 9.46223 0.00351085 0.00288043 -0.00316755 -0.68846 
91 2 6.78361 9.73449 6.726 -0.000901617 0.00229009 -0.00569467 -0.691664 
92 2 6.82463 6.97209 6.85645 -0.00277592 0.000351469 0.00491651 -0.690254 
93 2 9.48321 6.96195 6.91411 0.000424162 -0.00181176 -0.00480926 -0.693102 
94 2 9.50638 9.6922 6.85703 0.000835082 0.00117228 -0.00170071 -0.708528 
95 2 9.57649 9.72308 9.55153 0.000310568 0.000690187 -0.00131617 -0.698487 
96 2 9.52229 6.93518 9.71291 -0.00204224 0.00792322 -0.00254369 -0.679348 
ITEM: TIMESTEP
12000
ITEM: NUMBER OF ATOMS
96
ITEM: BOX BOUNDS pp pp pp
-3.6328146079301682e-02 1.0971228146079291e+01
-3.6328146079301682e-02 1.0971228146079291e+01
-3.6328146079301682e-02 1.0971228146079291e+01
ITEM: ATOMS id type x y z vx vy vz q 
1 1 0.0219762 10.8493 -0.0160511 0.000475972 0.00130135 -0.00105571 1.3868 
2 1 10.965 2.71841 2.77444 -0.000857702 -0.000289731 -0.00104274 1.38133 
3 1 2.77855 10.9587 2.68707 -0.000465238 0.00112189 0.00013665 1.38033 
4 1 2.72657 2.72191 10.9634 0.00125995 -0.00179214 -0.000125974 1.38445 
5 2 1.29218 1.20976 4.0378 0.00138633 -0.00438149 0.00451205 -0.684887 
6 2 1.50127 4.04782 4.13516 0.00366753 -0.000478964 -0.00142942 -0.709831 
7 2 1.3556 3.9911 1.2673 0.000312286 0.00395867 -0.00788503 -0.669154 
8 2 1.45069 1.43481 1.27012 0.00137533 0.00535587 0.00768405 -0.657281 
9 2 4.16348 1.4047 1.34475 -0.00101145 0.00299819 -0.000586118 -0.709513 
10 2 4.09354 4.08989 1.41922 0.00219952 0.00309853 -0.0012333 -0.698141 
11 2 4.21663 4.09417 4.19172 0.00509393 0.00397156 0.00227372 -0.685004 
12 2 4.00745 1.37207 4.15715 -0.00934499 0.00693539 0.00184526 -0.711588 
13 1 -0.00386647 0.0301394 5.4648 -0.000480795 -0.00197033 -0.00179104 1.38595 
14 1 10.9637 2.72801 8.28076 -0.000860795 0.000175886 0.00241888 1.41636 
15 1 2.76841 0.0222546 8.18805 -0.00178061 -0.00298896 -0.000744572 1.3619 
16 1 2.76823 2.78132 5.40927 0.00231288 0.00113924 0.00175228 1.42002 
17 2 1.23697 1.40023 9.66308 -0.00286587 -0.00459013 -0.00128945 -0.682404 
18 2 1.23398 4.10024 9.60362 0.00198759 -0.00734222 -0.0032798 -0.662181 
19 2 1.34684 4.11246 6.85868 0.00300935 0.00955763 -0.000257801 -0.665639 
20 2 1.41946 1.39803 6.81886 -0.00318097 -0.000837163 -0.00248469 -0.687417 
21 2 4.07912 1.34397 6.8015 0.000584953 0.00905582 0.00103061 -0.681616 
22 2 4.12652 4.07088 6.8054 -0.00127366 0.0049591 -0.00111368 -0.674403 
23 2 4.05242 4.08725 9.53822 -0.00238575 0.000677444 -0.00553975 -0.722162 
24 2 4.15087 1.2427 9.5082 0.00579269 -0.00821382 -0.00336755 -0.719966 
25 1 10.9473 5.49252 -0.00254277 -0.00129437 -0.00227382 0.000556967 1.37678 
26 1 10.9336 8.13664 2.69926 0.00116659 0.0011497 0.00162025 1.38055 
27 1 2.72198 5.43112 2.69109 0.00108612 -0.000634329 -0.000747882 1.38044 
28 1 2.71905 8.18883 -0.0244494 0.000588487 0.000769205 0.00134816 1.38519 
29 2 1.31604 6.8547 4.03288 -0.00328583 0.00411059 -0.00300416 -0.695431 
30 2 1.42065 9.63646 3.97291 0.00267028 -0.00352195 -0.00374841 -0.640646 
31 2 1.34825 9.52954 1.3301 0.00206365 -0.002591 -0.00355244 -0.709115 
32 2 1.34243 6.7044 1.40601 0.00360276 -0.000169089 0.00071192 -0.707714 
33 2 4.09892 6.81133 1.27424 0.000272176 0.00214755 0.00188121 -0.70209 
34 2 4.08286 9.50102 1.24494 -0.0114282 -0.00474162 -0.0011126 -0.711684 
35 2 3.94585 9.57778 4.10053 -0.000934946 0.00852288 -0.00769476 -0.694466 
36 2 4.16123 6.81664 4.0681 -0.00165036 0.00329832 -0.00306522 -0.694534 
37 1 10.9504 5.53468 5.4848 8.61631e-05 0.000200531 1.72283e-05 1.37548 
38 1 10.8764 8.25218 8.24118 -0.00097708 0.00255361 0.000206652 1.34412 
39 1 2.82587 5.42983 8.22175 -0.000280762 0.00200688 0.000350389 1.40112 
40 1 2.67472 8.22814 5.45665 -0.0016232 -0.00115787 -0.00118309 1.37884 
41 2 1.40923 6.80565 9.58245 0.0026085 -0.00221432 0.00461217 -0.662446 
42 2 1.37235 9.67618 9.51478 0.00130473 0.00859444 -0.00348649 -0.696779 
43 2 1.28223 9.5736 6.72663 -0.00127798 0.00187942 -0.000422371 -0.680072 
44 2 1.40728 6.87677 6.8384 0.00612888 -0.00105008 -0.00381796 -0.667264 
45 2 4.13193 6.84056 6.87749 0.0034323 0.000185625 -0.00973163 -0.68593 
46 2 4.16357 9.64536 6.80202 0.00416418 -0.00445017 -0.000922579 -0.708525 
47 2 4.04967 9.46794 9.57931 -0.00387182 0.00250534 0.00354423 -0.723348 
48 2 4.07023 6.72616 9.60795 0.00217993 -0.00405514 0.000241197 -0.68539 
49 1 5.42103 10.8626 10.9126 0.000928819 -0.00157922 -0.0019959 1.3783 
50 1 5.51915 2.65066 2.68189 0.00166792 0.00118767 0.000973195 1.38162 
51 1 8.19351 -0.00851829 2.74537 -0.000119562 0.00087073 0.000885187 1.39455 
52 1 8.26006 2.70959 -0.0223094 -0.00116975 -0.00135385 -0.000276293 1.36288 
53 2 6.80486 1.31039 4.17458 0.00459059 -0.0027668 0.00717305 -0.689009 
54 2 6.95542 3.96535 4.07327 0.000681126 -0.00327232 -0.00467145 -0.705735 
55 2 6.85377 4.20734 1.40031 0.00779527 0.00333776 0.00561211 -0.700242 
56 2 6.92563 1.44612 1.33778 0.00144039 -0.0072664 0.00336582 -0.692254 
57 2 9.73327 1.24399 1.42922 0.00275685 0.00716211 0.00447988 -0.663224 
58 2 9.605 4.13889 1.47114 -0.00220015 0.00142268 -0.00360065 -0.694292 
59 2 9.80261 4.10814 4.16409 0.00306748 -0.00050783 -0.00313426 -0.697224 
60 2 9.5015 1.34023 4.07025 -0.00113269 0.00270465 0.00298257 -0.685662 
61 1 5.3869 -0.0197981 5.432 -0.00185739 -0.00193737 -0.00176952 1.3984 
62 1 5.49621 2.7278 8.25381 0.000709576 0.00015129 0.000910306 1.37211 
63 1 8.13742 -0.024573 8.30537 -0.00101981 0.00218864 0.000323441 1.38606 
64 1 8.21784 2.75283 5.51286 -0.00029497 -0.0013935 -0.00139842 1.38638 
65 2 6.79739 1.45457 9.69869 0.00112896 0.00216088 -0.00270231 -0.690564 
66 2 6.9966 4.11594 9.55392 0.0015053 0.00155782 0.00373712 -0.679492 
67 2 6.84919 4.08113 6.69287 -0.00160986 -0.00301052 -9.6216e-05 -0.70151 
68 2 6.87179 1.41078 6.89121 -0.00474152 -0.00216611 0.00436467 -0.673852 
69 2 9.66247 1.2958 6.95024 0.00273539 -0.00135311 0.00404163 -0.673389 
70 2 9.58395 4.09932 6.97914 0.00538294 -0.00273466 0.000448633 -0.693021 
71 2 9.6851 4.03241 9.53777 0.000299198 -0.00141355 0.000249713 -0.668898 
72 2 9.54236 1.26452 9.63746 -0.00299914 -0.00038559 0.000889289 -0.659264 
73 1 5.4928 5.46901 0.0488891 0.00106924 -0.00313849 0.00326889 1.37998 
74 1 5.45332 8.12334 2.70626 -0.00105865 0.000814088 0.000988714 1.35987 
75 1 8.16466 5.48998 2.75423 -0.000485053 -0.000971613 -0.000454126 1.38196 
76 1 8.18256 8.22804 -0.0237216 0.00107717 0.000846697 0.000313076 1.38155 
77 2 6.85643 6.78323 4.07523 0.00189862 0.00686926 0.00171 -0.744336 
78 2 6.83053 9.57486 3.99237 -0.00199026 0.000339841 0.00645093 -0.695059 
79 2 6.77962 9.73608 1.16963 -0.00098491 0.00807516 0.000439579 -0.698855 
80 2 6.79352 6.8374 1.32932 0.00395221 0.00536084 -0.00362486 -0.723033 
81 2 9.55021 6.94723 1.28693 0.00217928 -0.00290055 -0.00396343 -0.705364 
82 2 9.59506 9.54409 1.39918 0.0025281 -0.000167994 0.00208547 -0.675928 
83 2 9.57407 9.73718 4.10233 -0.000403699 0.000403568 0.00226541 -0.670671 
84 2 9.61441 6.82496 4.08803 0.00616265 9.95054e-06 -0.00217365 -0.714795 
85 1 5.5755 5.46743 5.36419 -0.000260231 0.00195337 0.00148829 1.41418 
86 1 5.33447 8.22022 8.21549 -0.00110349 0.00116372 -0.000231632 1.36753 
87 1 8.20455 5.51756 8.15119 -0.000330491 0.00103905 -0.000641199 1.37309 
88 1 8.19083 8.27542 5.45097 -0.00118374 -0.00207632 -0.00170953 1.36892 
89 2 6.8415 6.83534 9.56692 -0.00755595 0.000253603 0.000662716 -0.67399 
90 2 6.87061 9.56567 9.50141 0.00951521 -0.0026133 -0.00219304 -0.719757 
91 2 6.83443 9.71529 6.67906 0.00319629 -0.00434966 0.00422123 -0.667264 
92 2 6.83804 6.83493 6.75379 0.000568164 -0.00567173 -0.00284678 -0.695704 
93 2 9.62121 6.88873 6.82465 0.00254104 -0.00450736 -0.00138828 -0.717791 
94 2 9.55835 9.62344 6.82658 -0.00344069 -0.00327867 -0.000116023 -0.664466 
95 2 9.55346 9.70714 9.66475 -0.00160658 0.00302667 -0.00468518 -0.7033 
96 2 9.623 6.84852 9.64362 -0.00214059 -0.00188615 -0.000234184 -0.701899 
ITEM: TIMESTEP
13000
ITEM: NUMBER OF ATOMS
96
ITEM: BOX BOUNDS pp pp pp
-3.6328146079301682e-02 1.0971228146079291e+01
-3.6328146079301682e-02 1.0971228146079291e+01
-3.6328146079301682e-02 1.0971228146079291e+01
ITEM: ATOMS id type x y z vx vy vz q 
1 1 10.9649 10.8596 10.9209 0.000552395 0.00176088 -0.00170075 1.39235 
2 1 0.00921607 2.72676 2.77609 9.52753e-05 0.00160804 0.001253 1.38554 
3 1 2.6327 10.9383 2.73316 0.000933063 4.39116e-05 -0.000336908 1.36554 
4 1 2.7065 2.73964 -0.0200428 0.00199338 -0.00031648 -3.11664e-05 1.36017 
5 2 1.26217 1.31006 4.15141 0.000579636 -0.00807863 0.00390808 -0.709503 
6 2 1.41133 4.093 4.05841 0.00147711 -0.00520949 0.00316401 -0.698051 
7 2 1.41226 4.14975 1.30621 0.00651783 -0.000412699 -0.00821796 -0.70471 
8 2 1.28792 1.32458 1.41874 -0.00375179 -0.00440364 0.00353684 -0.670478 
9 2 4.02177 1.30192 1.36791 0.00430688 -0.00599216 -7.98765e-05 -0.687025 
10 2 4.0769 4.08365 1.34823 0.000980731 -0.00578285 -0.00268517 -0.678527 
11 2 4.14135 4.16859 3.97449 0.00378104 -0.000794755 -0.00435787 -0.672578 
12 2 4.10479 1.37997 4.12142 -0.00394092 -0.00170019 0.00232385 -0.686857 
13 1 -0.0133174 0.0237672 5.52173 0.000694689 0.00312607 -0.000666273 1.39579 
14 1 -0.0218486 2.77142 8.20349 0.000225306 -0.00179128 0.00168407 1.43201 
15 1 2.69884 0.0348246 8.27743 -0.00245707 -0.00210474 0.000561331 1.38169 
16 1 2.72657 2.68202 5.43901 0.00177965 0.00225182 0.000536383 1.38522 
17 2 1.22738 1.25278 9.58108 -0.000511932 0.00321066 -0.00142508 -0.696766 
18 2 1.4179 4.11354 9.54776 0.00013809 0.000781768 0.00337156 -0.704458 
19 2 1.29483 4.04243 6.84855 -0.00424885 0.0041636 0.00418129 -0.722091 
20 2 1.31437 1.43821 6.81313 -0.000544037 -9.74071e-05 -0.00188672 -0.703102 
21 2 4.18284 1.39876 6.81145 0.00111753 0.00251331 -0.00352849 -0.696436 
22 2 4.05789 4.06075 6.76662 0.00318295 -0.00129532 7.12171e-06 -0.687183 
23 2 4.15403 4.13539 9.61239 0.000126314 0.0026202 -0.00387159 -0.682297 
24 2 3.94586 1.30278 9.58291 0.000670414 -0.00272773 0.000934612 -0.723116 
25 1 -0.0257991 5.5146 -0.0325613 -0.000518146 -0.00147195 0.000310672 1.38284 
26 1 10.9078 8.24486 2.77134 0.00109921 -6.58379e-05 -0.0012176 1.41981 
27 1 2.64125 5.5062 2.67342 0.000597918 -0.00191424 -0.00126591 1.40293 
28 1 2.71445 8.17461 -0.0340531 -0.0013951 9.7796e-05 -0.000661384 1.37347 
29 2 1.31278 6.80915 4.0839 -0.00568975 0.00164134 0.00759739 -0.668109 
30 2 1.29118 9.61373 4.0092 -0.00131817 0.00432747 0.00374342 -0.682799 
31 2 1.15766 9.59199 1.2507 0.000406655 -0.0053469 -0.000936819 -0.692486 
32 2 1.31468 6.94512 1.36016 -0.00529829 -0.00120182 0.00749797 -0.70673 
33 2 4.12384 6.80093 1.263 -0.00251399 0.000528518 0.000917062 -0.69794 
34 2 4.06442 9.56154 1.44647 0.000381663 -0.00430745 0.00479894 -0.713504 
35 2 4.07374 9.6045 4.24127 -0.00124894 -0.00089839 -0.00312989 -0.672424 
36 2 4.00376 6.93231 3.99472 3.48162e-05 -0.00447858 0.00110148 -0.672946 
37 1 10.916 5.43657 5.53754 -0.000876102 0.00184628 0.000330582 1.3726 
38 1 0.0123851 8.24982 8.22993 0.00111228 0.000186752 -0.000549869 1.38453 
39 1 2.65848 5.39882 8.12284 0.00116634 0.00223625 0.000655457 1.3966 
40 1 2.76794 8.16972 5.50165 -0.000340571 -0.00146149 -0.0016304 1.38331 
41 2 1.29601 6.80522 9.53763 -0.00118001 0.00222143 0.00336563 -0.683454 
42 2 1.41288 9.50512 9.50349 0.00665067 -0.0048879 -0.00262086 -0.706691 
43 2 1.21936 9.60461 6.72901 -0.00224319 -0.00100853 -0.00121116 -0.681285 
44 2 1.39963 6.85269 6.83961 -0.000508438 0.00208174 -0.00452511 -0.698747 
45 2 4.15506 6.69494 6.7702 -0.00210182 -0.00148768 0.00415861 -0.670894 
46 2 3.99065 9.58986 6.90739 -0.00399515 0.00185046 0.00209036 -0.689601 
47 2 3.9946 9.62532 9.60771 0.00121248 -0.00127843 -0.00212094 -0.709404 
48 2 4.02099 6.87524 9.51784 -0.0014217 -0.00138252 -7.61945e-05 -0.653304 
49 1 5.35056 10.9469 10.9322 -0.00126099 0.00190919 -0.00208849 1.33455 
50 1 5.50263 2.71142 2.68321 4.14482e-05 -0.000697893 -8.70205e-05 1.34997 
51 1 8.22291 0.0116952 2.73297 0.000661868 -0.00030153 6.04375e-05 1.38407 
52 1 8.28474 2.66993 10.9115 6.50526e-05 -0.00287733 0.000752936 1.36238 
53 2 6.83369 1.30405 4.13788 0.00187725 0.00187738 -0.00141805 -0.707829 
54 2 6.94731 4.03278 4.14314 -0.00612604 0.00612604 -0.00043394 -0.686392 
55 2 6.91847 4.13447 1.13871 0.00242181 0.00301742 0.0035054 -0.687357 
56 2 6.91629 1.41622 1.3857 -4.74596e-05 -0.00276919 -0.00326141 -0.686275 
57 2 9.66373 1.34402 1.40862 0.000708617 0.00194623 -0.00200236 -0.672207 
58 2 9.73378 4.18029 1.37254 0.00474088 0.00185642 -0.00498857 -0.692044 
59 2 9.55067 4.03135 4.09124 -0.00136677 0.00468613 -0.00282629 -0.682814 
60 2 9.61609 1.4125 4.25926 -0.00379962 0.00222404 1.4141e-05 -0.69998 
61 1 5.49773 0.0211452 5.47503 -0.00179927 -0.000278892 0.000452683 1.38863 
62 1 5.49592 2.72497 8.22127 0.00288092 0.0015906 -0.000240405 1.37621 
63 1 8.26114 10.9472 8.25649 -0.000977314 -1.73107e-05 0.000705979 1.37157 
64 1 8.24056 2.65489 5.48454 -0.000584139 0.00140739 0.00226304 1.41968 
65 2 6.78862 1.28996 9.64338 -0.000927845 0.00237936 -0.00434514 -0.682873 
66 2 6.82056 4.02843 9.4955 0.00239534 0.003004 -0.00162217 -0.673278 
67 2 6.76326 4.18037 6.82804 -0.00336397 0.00498827 0.00230138 -0.685207 
68 2 6.90708 1.32737 6.84215 0.000218938 -0.00745708 0.00781852 -0.707122 
69 2 9.66768 1.54096 6.90798 -0.00227208 -0.000182624 0.00340115 -0.7024 
70 2 9.51666 4.17574 6.84437 -0.00894117 -0.00157578 -8.89303e-06 -0.68668 
71 2 9.61191 3.98247 9.43389 -0.00444608 -0.00228884 -0.00207636 -0.691991 
72 2 9.6157 1.29505 9.61739 -0.0023913 0.00284595 0.000518767 -0.696568 
73 1 5.47275 5.43701 10.9552 0.00150552 -0.000315456 0.000262669 1.37783 
74 1 5.47527 8.24072 2.69141 -0.000348844 -0.00066411 0.000199858 1.39468 
75 1 8.29286 5.51404 2.68356 0.00142224 -0.000933945 0.00107403 1.36856 
76 1 8.19556 8.13285 10.9536 -0.00150301 -0.00111876 -0.00107078 1.38129 
77 2 6.78732 6.83433 4.13101 0.000714191 0.000718406 0.00280854 -0.667091 
78 2 6.88164 9.64252 3.96091 -0.00359039 -0.0041345 0.00463844 -0.676061 
79 2 6.87976 9.55104 1.32511 -0.000150849 0.00315079 0.00688225 -0.658247 
80 2 6.90382 6.90262 1.50275 0.00257394 0.000614847 -0.00289611 -0.697347 
81 2 9.59062 6.92196 1.39441 -0.00545725 2.18427e-05 0.00303281 -0.696471 
82 2 9.52649 9.55093 1.40231 0.003668 0.00127595 0.000775993 -0.65561 
83 2 9.57248 9.63044 4.16505 -0.00276081 -0.00467224 0.000526509 -0.687004 
84 2 9.62104 6.90927 4.10072 0.00288091 -0.000728319 0.00153131 -0.702867 
85 1 5.51176 5.38846 5.44305 0.00143687 -0.000541261 -0.0011311 1.40322 
86 1 5.44142 8.32022 8.19858 -0.0013081 -0.00087108 -0.00149195 1.37406 
87 1 8.23237 5.51973 8.20795 0.000240374 0.00111466 0.00114542 1.39144 
88 1 8.23229 8.23015 5.5082 -0.000252047 0.000898742 -0.00197739 1.34794 
89 2 6.78924 6.80887 9.5933 -0.00576578 0.0024116 -0.00175735 -0.710844 
90 2 6.87215 9.61101 9.50776 0.00240137 -0.00380376 0.00245416 -0.693922 
91 2 6.7418 9.60279 6.82991 -0.00253661 0.00731862 0.00168825 -0.705661 
92 2 6.81373 6.90763 6.81645 0.000829961 0.00554356 0.00787408 -0.669787 
93 2 9.67238 6.77732 6.86847 -0.000752012 -0.00432119 -0.00943898 -0.709487 
94 2 9.60251 9.57415 7.04111 0.00198466 -3.77381e-06 0.00195479 -0.715022 
95 2 9.57179 9.53134 9.68451 -0.00320067 -0.00542333 0.00379649 -0.713289 
96 2 9.58609 6.65187 9.71775 -0.00333203 -0.00226119 -0.00032646 -0.717241 
ITEM: TIMESTEP
14000
ITEM: NUMBER OF ATOMS
96
ITEM: BOX BOUNDS pp pp pp
-3.6328146079301682e-02 1.0971228146079291e+01
-3.6328146079301682e-02 1.0971228146079291e+01
-3.6328146079301682e-02 1.0971228146079291e+01
ITEM: ATOMS id type x y z vx vy vz q 
1 1 10.9619 -0.00474034 -0.0245094 0.000697921 -0.000345472 0.00139208 1.37825 
2 1 10.9097 2.68413 2.71253 -0.00102145 -0.00189917 -0.00104016 1.3878 