ITEM: TIMESTEP
1000000
ITEM: NUMBER OF ATOMS
672
ITEM: BOX BOUNDS xy xz yz pp pp pp
0.0000000000000000e+00 2.5142850118580732e+01 7.7383733040919518e+00
0.0000000000000000e+00 1.4514250137559175e+01 1.9345933144887779e+00
0.0000000000000000e+00 1.6736216833333333e+02 1.1169379708925102e+00
ITEM: ATOMS id type x y z vx vy vz q
657 2 4.19189 2.14397 123.797 0.0114128 -0.000888017 0.00260805 -0.692229
658 2 6.13797 5.53364 123.778 -0.00860069 -0.00483276 0.00277519 -0.680822
661 2 7.56041 2.07066 123.877 -0.00703028 -0.0051652 0.00998008 -0.675744
662 2 9.68954 5.90642 123.805 -0.00236334 0.000576988 -0.00272753 -0.663622
665 2 11.9528 2.00857 123.781 -0.00282189 0.0010595 0.0102959 -0.694035
666 2 13.3844 5.52745 123.826 0.00173281 0.000976705 -0.00272826 -0.679725
669 2 15.7551 2.11683 123.758 0.00148866 -0.00290955 -0.00347008 -0.650981
670 2 17.4451 6.01385 123.783 -0.00223174 -0.0015154 -0.000468608 -0.686025
659 2 7.57907 9.04558 123.84 -0.00363721 0.00159978 0.00132744 -0.683499
663 2 11.9327 8.74224 123.824 0.000733393 -0.000543838 0.000979459 -0.656463
660 2 9.56894 12.17 123.865 -0.00341141 -0.00134253 -0.000854001 -0.696028
664 2 13.2888 12.1359 123.922 -0.000727936 0.000328166 0.00663675 -0.681477
667 2 15.4011 9.1836 123.79 0.00524862 0.000664444 0.00238257 -0.639355
668 2 17.3317 12.0741 123.794 -0.00251826 -0.00120769 -0.00697158 -0.660027
671 2 19.5345 9.39058 123.716 -0.000866167 0.00272125 0.00105073 -0.662859
672 2 21.2881 12.545 123.76 -0.00344631 -0.00409693 -0.00888681 -0.64566
213 1 5.76631 1.28407 124.521 0.00168147 0.00297637 0.000721877 1.38776
210 1 4.03508 4.55073 124.611 0.00131166 0.00145619 -0.000827225 1.29843
209 1 1.86509 1.17827 124.62 0.00166911 0.000411172 0.000564035 1.36488
641 2 5.82891 3.50376 125.467 -0.00471202 0.00358327 -0.000392082 -0.711549
193 1 5.86466 3.34349 127.82 -0.00249049 -0.000512341 -0.000393924 1.40316
593 2 5.83165 3.33019 130.078 -0.00297161 -0.00167374 0.00917784 -0.681558
609 2 3.88092 2.26901 128.538 -0.00356774 -0.00388207 -0.000488065 -0.705823
610 2 5.77137 5.45938 128.528 -0.000406039 0.00231908 -0.00415196 -0.70605
625 2 1.8825 1.16307 126.846 0.00407571 0.00403651 0.00172652 -0.698167
626 2 3.93532 4.60205 126.914 0.00019293 -0.00158598 0.00762959 -0.686961
629 2 5.88464 1.18614 127.047 0.00273696 -0.00378792 -0.00216094 -0.706159
214 1 7.71914 4.56116 124.529 -0.000989357 -0.000607651 0.00072059 1.32769
642 2 7.92746 6.89055 125.375 0.00192511 -0.00463193 0.000900716 -0.703915
218 1 11.919 4.37036 124.582 0.000355063 -0.00045947 -0.00280057 1.32051
217 1 9.68162 1.00204 124.525 0.00259827 -0.00117225 3.66024e-05 1.26952
645 2 9.75116 3.35798 125.268 -0.00135099 -0.0051142 0.00700303 -0.691431
646 2 11.732 6.68958 125.38 -0.000681081 0.00485744 -0.000673498 -0.703868
194 1 7.82146 6.75353 127.77 0.00129675 0.00159145 -0.000369643 1.35797
594 2 7.77743 6.72423 130.111 -0.000873797 0.000222464 0.00104566 -0.708538
613 2 7.85511 2.21888 128.607 -7.32948e-06 -0.00192416 0.000772458 -0.708842
630 2 7.86035 4.62555 126.912 0.00424837 -0.0014299 0.00466557 -0.683798
197 1 9.75866 3.3461 127.616 0.00108211 -0.00104933 -0.00247716 1.35535
198 1 11.5964 6.78083 127.759 0.000872174 -0.000906485 -0.000351299 1.40348
597 2 9.86361 3.28276 130.037 0.00245669 -0.000975169 0.00414336 -0.674584
598 2 11.56 6.84366 130.11 0.00320457 -0.00537998 0.00402652 -0.68348
614 2 9.75474 5.71252 128.655 -0.0105722 0.00107411 0.00153412 -0.670578
617 2 11.7056 2.2047 128.536 0.00192694 -0.00253782 -0.00292029 -0.695632
633 2 9.68995 1.03396 126.958 -0.00201298 -0.000563685 0.000286365 -0.714381
634 2 11.6071 4.49871 126.985 0.000867002 0.00323087 0.0132155 -0.697325
222 1 15.6253 4.57655 124.611 0.002197 0.00110085 0.00122537 1.2577
221 1 13.5166 1.02551 124.504 0.00151097 -0.000535846 -0.00139838 1.42463
650 2 15.5613 6.88412 125.217 0.00113979 -0.00235506 0.00355053 -0.68679
649 2 13.7054 3.28411 125.331 -0.00067435 -0.00214011 -0.000982604 -0.71805
653 2 17.5123 3.41623 125.356 -0.0028371 -0.0036898 0.00131394 -0.728567
201 1 13.6088 3.37879 127.765 -0.000654262 -0.000256496 -0.00149152 1.36739
202 1 15.5023 6.80958 127.764 -0.000681235 0.000592526 -0.000127029 1.40171
601 2 13.5412 3.35242 130.143 -0.00325312 0.0020075 -0.00944672 -0.701704
602 2 15.4146 6.83346 130.057 0.00749457 -0.000195684 0.00589032 -0.695595
618 2 13.5353 5.54325 128.522 -0.00129799 0.00395143 -0.00357245 -0.670661
621 2 15.5622 2.19872 128.465 0.00748471 0.00722954 0.00192412 -0.708887
638 2 15.461 4.6031 126.967 0.000282426 -0.00243291 0.00181386 -0.706018
637 2 13.5032 1.01373 126.988 0.000612648 -0.00307813 -0.00716236 -0.663104
205 1 17.4149 3.41797 127.694 0.000762692 -0.00126196 -0.000388712 1.38648
605 2 17.4126 3.36012 130.061 -0.00328049 0.00503795 -0.00181783 -0.678801
622 2 17.423 5.56949 128.525 0.000208865 -0.00373596 -0.000695849 -0.696957
654 2 19.4413 6.70147 125.279 0.00214806 -0.00107198 -0.011074 -0.688545
206 1 19.4042 6.6623 127.721 -0.0001021 -0.00121837 1.53882e-05 1.39836
606 2 19.4732 6.71538 130.114 0.00649989 -0.00399468 -0.00503149 -0.728444
211 1 6.01221 8.01821 124.569 -0.00293851 0.000477604 -0.0008566 1.33106
627 2 5.78534 7.81823 126.975 -0.0090871 -0.00162112 0.00191154 -0.70762
212 1 7.95605 11.2231 124.54 -0.00228923 8.68838e-05 -0.00221331 1.37168
216 1 11.6862 11.2388 124.621 0.000810795 -0.000857873 0.000193302 1.39808
215 1 9.80849 7.6686 124.603 0.000902736 0.0010009 -0.000983412 1.3724
644 2 11.5303 13.4627 125.377 0.00655798 -0.00423932 0.00326908 -0.678129
643 2 9.94528 10.0709 125.289 -0.00314481 0.00286073 0.00089957 -0.705402
611 2 7.72171 9.1864 128.545 -0.00432572 -0.00381534 0.00191605 -0.708274
628 2 7.86276 11.1404 126.851 -0.00273266 0.00104226 0.00100194 -0.698656
631 2 9.77255 7.79259 127.062 0.00267432 0.00547781 -0.00561391 -0.730766
195 1 9.69289 10.0575 127.749 -0.000698902 -0.00040939 0.00122949 1.39665
196 1 11.6358 13.4744 127.8 0.000979381 -0.00217866 0.000288091 1.36119
595 2 9.71166 10.1068 130.095 -0.00290167 0.000899849 -0.00363966 -0.65956
612 2 9.71383 12.2631 128.555 0.00306236 0.00133736 -0.00161288 -0.702769
615 2 11.6942 9.06409 128.383 0.00294221 -3.93809e-05 0.000746983 -0.694721
632 2 11.7201 11.2229 126.962 -0.00308845 0.00169936 0.0024225 -0.675773
648 2 15.4856 13.3987 125.337 -0.00672615 -0.00311379 -0.00840179 -0.69318
220 1 15.4891 11.0983 124.608 0.000729133 -1.6625e-05 -0.0002243 1.3561
219 1 13.5108 7.82937 124.619 -0.000701812 -4.57795e-05 0.000439739 1.41078
223 1 17.4845 7.85253 124.485 0.0021196 -0.000360269 -0.00211163 1.367
651 2 17.4389 9.96679 125.328 -0.000776946 -0.00781833 0.000371771 -0.707803
635 2 13.6678 7.87629 126.961 0.00713213 0.00221032 -0.000163601 -0.698067
199 1 13.6169 10.1207 127.686 -0.00147269 0.000978448 0.000221051 1.43431
200 1 15.5501 13.4765 127.67 -0.00200918 -0.00036399 -0.000534733 1.40443
599 2 13.5442 10.0024 130.101 -5.47603e-05 0.00290514 -0.00416189 -0.699187
600 2 15.6578 13.3279 130.162 0.00265403 0.00129478 0.00401065 -0.670866
616 2 13.6051 12.3845 128.528 -0.00415713 -0.00374677 -0.0029382 -0.68099
619 2 15.5584 8.99231 128.564 -0.00363474 -0.00048491 -0.00385316 -0.710704
636 2 15.5765 11.1796 127.042 0.00341357 -0.000996084 0.00753149 -0.709495
647 2 13.5435 9.98136 125.527 9.18393e-05 -0.00815932 -0.00501302 -0.711642
639 2 17.3687 7.73321 126.872 0.000932438 0.00174149 -0.00369412 -0.680687
203 1 17.4797 10.0542 127.736 0.00106675 5.62602e-05 0.000996868 1.37632
603 2 17.4981 9.98174 130.117 0.00441895 -0.00131649 -0.00073351 -0.683783
620 2 17.5151 12.3308 128.509 -0.000108306 0.00560659 0.00124554 -0.686204
656 2 23.1568 13.397 125.351 -0.00249446 0.00477198 -0.00360519 -0.690517
655 2 21.2757 10.172 125.346 -0.00682505 -0.00421819 -0.00317846 -0.678488
652 2 19.3053 13.323 125.305 -0.00275571 -0.000494661 0.00292058 -0.704196
224 1 19.3486 11.1775 124.559 -0.00150995 -0.000176397 0.000889575 1.41132
204 1 19.3766 13.3939 127.793 -0.00076852 0.00203874 0.00123629 1.40476
207 1 21.3185 10.0615 127.724 -0.000646779 8.19899e-05 -0.000680022 1.41776
208 1 23.2871 13.3544 127.781 -0.00121758 -0.00039994 -0.00104737 1.38987
607 2 21.3004 9.97908 130.073 0.00327933 -0.000686714 0.000316671 -0.690961
608 2 23.2874 13.2381 130.136 -0.00436525 0.00210605 -0.00620024 -0.713571
623 2 19.3684 8.93903 128.494 0.00414536 6.32503e-05 -0.00602444 -0.691094
624 2 21.3524 12.2258 128.512 -0.00368289 0.00206722 0.00363172 -0.684174
640 2 19.4452 11.1672 126.907 -0.000917163 -0.000279762 -0.00138594 -0.694809
177 1 3.92045 2.197 130.886 0.00150718 -0.00124277 -0.00157791 1.41718
178 1 5.81509 5.63388 130.834 -0.00120021 0.00204408 -0.000955732 1.41185
578 2 3.91958 4.32489 131.651 -0.0043048 -0.00232691 -0.00499612 -0.674691
581 2 5.88909 1.12653 131.804 0.00470303 -0.00519291 0.000277126 -0.728245
577 2 1.83748 1.23715 131.679 -0.00661286 -0.00105617 0.000585458 -0.707311
161 1 2.03308 1.10479 134.12 -0.000663589 -0.00140137 -0.000169898 1.35861
162 1 3.92519 4.44936 134.082 0.000930415 0.000407802 -0.00155983 1.39435
165 1 5.90539 1.15426 134.045 -0.00370568 0.000490055 0.00120376 1.38874
545 2 5.90502 3.36944 134.947 -0.00371897 -0.00398926 -0.0037481 -0.683022
561 2 3.90282 2.19421 133.325 -0.00545326 0.00114424 -0.00210979 -0.696048
562 2 5.83686 5.58305 133.285 -0.00167306 -0.000721863 -0.00292616 -0.698589
181 1 7.88334 2.20524 130.894 -0.000107396 0.000835212 0.00269918 1.36804
582 2 7.74562 4.52684 131.641 -0.00520727 0.000816151 -0.000652671 -0.682827
182 1 9.69855 5.6054 130.938 0.000452524 0.00128001 0.000670903 1.4122
185 1 11.7003 2.28921 130.86 -0.0010105 -0.000338663 -0.00109687 1.40451
586 2 11.6224 4.57123 131.602 0.00045739 0.00509946 -0.00308683 -0.711265
585 2 9.62675 1.1346 131.744 -0.0033862 -0.00788716 -0.000712784 -0.670739
166 1 7.812 4.5217 134.12 -0.00091891 -0.000267834 -0.000869307 1.41952
546 2 7.76277 6.71841 134.877 -0.00123149 0.000572882 0.00330709 -0.703039
565 2 7.90025 2.33916 133.476 -0.000284801 -0.00641605 -0.00257487 -0.693961
169 1 9.70131 1.16154 134.178 -0.00037954 -8.27357e-05 0.000166231 1.38433
170 1 11.6267 4.47188 134.074 -7.10669e-05 -0.00101684 0.000720396 1.40429
549 2 9.62549 3.45922 134.933 -0.00491009 -0.00846449 0.000510993 -0.704378
550 2 11.5478 6.57465 134.874 -0.00129229 0.000762244 0.0031957 -0.702591
566 2 9.66178 5.59369 133.237 0.00228518 -0.00312343 -0.00259112 -0.714114
569 2 11.5896 2.25269 133.301 -0.00196306 -0.000466455 0.00427852 -0.721196
186 1 13.5229 5.62924 130.961 0.000551649 0.00138195 0.00312754 1.40554
189 1 15.5593 2.28154 130.873 9.74125e-05 0.000439378 0.00132355 1.39682
589 2 13.5661 1.18865 131.706 -0.000183466 0.000298365 0.000433996 -0.68243
590 2 15.4897 4.56499 131.668 -0.00134712 -0.00207037 -0.00499782 -0.694365
190 1 17.3848 5.6139 130.909 0.00127297 0.000991074 -0.000258472 1.37273
173 1 13.5632 1.24918 134.045 -0.000800123 -0.000940818 0.00136467 1.36603
174 1 15.5182 4.51755 134.099 0.00250373 0.0010225 0.000993979 1.39929
553 2 13.5246 3.3782 134.902 0.00032117 0.00408104 -0.00469202 -0.689301
554 2 15.4639 6.54143 134.805 9.7758e-05 0.00318836 -0.00663792 -0.699465
570 2 13.4979 5.49891 133.248 -0.00220716 0.00800708 -0.00239013 -0.70558
573 2 15.4468 2.33126 133.209 -0.0044665 0.00790957 -0.00772885 -0.685132
557 2 17.5714 3.49094 134.876 -0.00688963 -0.00303308 -0.000721095 -0.689717
574 2 17.493 5.60929 133.165 -0.00253313 0.00321606 0.00216681 -0.701415
558 2 19.4124 6.70203 134.931 -0.00863834 0.000442259 0.00311072 -0.697371
579 2 5.87028 7.81351 131.595 0.00532503 -0.00184206 0.00270044 -0.726342
163 1 5.84525 7.78778 134.088 0.000537576 -0.00263129 -0.00146551 1.40587
179 1 7.69409 8.93214 130.923 -0.00176611 0.000103914 0.00062535 1.4374
580 2 7.79358 10.9942 131.681 0.00361876 -0.00792889 -0.000204738 -0.680204
583 2 9.67202 7.92034 131.68 0.0052627 0.000450342 0.000644294 -0.666429
180 1 9.61762 12.3764 130.931 0.000878131 -0.000182344 -0.00123177 1.41162
183 1 11.6578 9.02349 130.842 -0.00152423 -0.00060937 0.00165 1.41769
584 2 11.6725 11.1442 131.7 0.000843131 -0.00189602 -0.0021104 -0.698773
596 2 11.5486 13.5418 130.198 -0.00138618 -0.00434537 0.00415432 -0.734003
164 1 7.81814 11.2039 134.17 -0.000659895 -0.0020072 -0.000283372 1.3807
563 2 7.67979 8.89799 133.325 0.00105474 0.00340448 -0.00239063 -0.683876
167 1 9.66863 7.82611 134.116 -0.00227814 -0.00117093 -0.00101568 1.38686
168 1 11.5542 11.0852 134.094 -0.00159746 0.00108292 -0.00100151 1.36338
547 2 9.68635 10.0189 134.98 -0.00644758 0.00904544 5.81977e-05 -0.726129
548 2 11.58 13.4276 134.887 0.00787436 -0.000968058 -0.00436645 -0.685768
564 2 9.69254 12.2878 133.255 0.00250936 0.000859083 0.0104398 -0.72556
567 2 11.663 8.89575 133.237 -0.00161234 0.00161101 0.00715775 -0.707215
184 1 13.5425 12.3347 130.971 0.000195729 -0.00031579 0.000754704 1.35103
187 1 15.4949 8.97785 130.837 6.39988e-05 0.000964027 -0.00179889 1.40812
587 2 13.5577 7.831 131.626 -0.00108685 0.00218226 -0.00195181 -0.688729
588 2 15.5295 11.2016 131.714 2.49241e-05 -0.00543088 0.000177809 -0.696918
591 2 17.396 7.8723 131.67 -0.00111627 0.000123625 -0.000916157 -0.713723
188 1 17.4428 12.2474 130.924 0.000194998 0.00165965 -0.0013854 1.43355
171 1 13.5017 7.80024 134.06 0.00163992 -0.00162498 -0.00152735 1.36428
172 1 15.6021 11.1045 134.106 0.000916581 3.6084e-05 0.00267205 1.38449
551 2 13.4998 10.0889 134.93 -2.16413e-05 -0.00383475 -0.00282884 -0.684093
552 2 15.5046 13.391 134.952 -0.00535517 0.00255761 0.00370649 -0.678098
568 2 13.6424 12.2606 133.363 -0.00233943 -0.00459741 -0.00206108 -0.655269
571 2 15.5074 8.84202 133.396 0.00393738 0.00221065 0.00371945 -0.689646
175 1 17.4489 7.84703 134.01 -0.00130326 -0.000798974 -0.00222374 1.38197
555 2 17.4215 9.99387 134.732 -0.00460677 0.00501395 0.00383283 -0.704183
572 2 17.4273 12.3398 133.179 0.000554593 0.00131546 0.000686277 -0.672932
191 1 19.3996 8.84739 130.911 0.00183896 -0.000514589 -0.00119394 1.42827
192 1 21.2841 12.2066 130.954 -9.50051e-05 -0.00140943 0.0036683 1.37032
592 2 19.3046 11.0589 131.713 0.00229003 0.00161971 -0.00977016 -0.680642
604 2 19.3846 13.3148 130.179 0.00237137 -0.000359217 0.000463013 -0.696897
176 1 19.4694 11.1437 134.121 0.00221711 -0.00184335 -0.00215389 1.39508
556 2 19.425 13.3118 134.932 0.000460404 0.0010838 -0.00241484 -0.701937
559 2 21.2809 10.0708 134.869 -0.00257486 -0.00135528 -7.75946e-05 -0.692355
560 2 23.2526 13.4229 134.913 0.00318392 -0.00119535 -0.00512737 -0.69657
575 2 19.4596 8.99929 133.209 0.00226742 -0.00256723 0.0062893 -0.700009
576 2 21.4252 12.2407 133.25 0.000566353 -0.00162733 -0.000780929 -0.693607
145 1 5.87688 3.3012 137.288 -4.88683e-05 0.00135669 -0.000623144 1.38595
513 2 3.86786 2.20306 138.071 0.00673257 -0.00237051 0.00313288 -0.69861
514 2 5.82849 5.54105 138.099 0.00126054 -0.00575335 -0.00167114 -0.690172
530 2 4.00999 4.43415 136.467 0.00424764 -0.00377451 -0.00175563 -0.681491
533 2 5.83917 1.04288 136.457 0.00224244 -0.00143089 -0.00359757 -0.687937
529 2 1.92355 1.25018 136.562 -0.00456405 -0.00525008 0.00120693 -0.699602
497 2 5.93504 3.38493 139.778 -0.00131781 0.00352781 0.00165343 -0.715079
129 1 3.98423 2.28975 140.51 -0.00114791 0.000499631 -6.80766e-05 1.40914
130 1 5.85799 5.57795 140.443 0.00145475 -0.00043966 0.000959974 1.39867
485 2 5.67939 1.2372 141.308 0.0153967 0.00514345 0.00177731 -0.68594
481 2 1.97526 1.13665 141.306 -0.00526364 -0.00353232 -0.000115906 -0.665166
482 2 3.95387 4.46583 141.376 0.0105032 -0.00210828 -0.00159862 -0.699358
146 1 7.7737 6.80793 137.31 -0.000681795 -0.000924266 -0.00129423 1.41356
517 2 7.71197 2.17792 138.14 -0.00343839 0.00264189 -0.000347591 -0.668546
534 2 7.77631 4.49309 136.53 0.00492639 0.00050328 0.00609313 -0.648538
149 1 9.81462 3.42616 137.274 0.000449176 -0.00109781 -0.00130904 1.36852
150 1 11.6308 6.70315 137.202 0.00242031 8.06019e-05 -0.000714796 1.39512
518 2 9.5662 5.67061 138.038 -0.00147882 -0.00183267 0.00156892 -0.708526
521 2 11.5538 2.23323 138.128 -0.00086563 0.0017264 -0.000767227 -0.717198
538 2 11.7367 4.52926 136.459 -0.0023325 0.00155191 0.00180328 -0.709255
537 2 9.66527 1.13343 136.489 0.00271297 -9.42899e-05 -0.00166064 -0.696988
498 2 7.7073 6.78841 139.686 0.0025512 -0.00148135 0.00622006 -0.697602
133 1 7.76193 2.24989 140.494 0.000690342 -0.00165817 0.000297431 1.39716
486 2 7.84118 4.52981 141.31 -0.0061073 0.00127722 -0.00140607 -0.671542
501 2 9.6991 3.37473 139.642 -0.000707055 -0.00318344 -0.00435888 -0.677419
502 2 11.7831 6.75201 139.624 0.00433897 0.0084641 -0.0105139 -0.68949
134 1 9.7918 5.64369 140.446 -0.00321134 0.000713434 -0.00212778 1.35778
137 1 11.6815 2.17084 140.427 0.00149655 -0.00234544 -0.00110763 1.41745
490 2 11.7798 4.43903 141.228 0.00179658 -0.00267664 0.00309393 -0.688112
489 2 9.67476 1.14907 141.341 0.00235435 0.0071178 0.00278119 -0.707404
153 1 13.5673 3.35522 137.335 -0.00124183 0.000909741 0.000544036 1.37578
154 1 15.5005 6.7225 137.214 0.00198404 -0.00163244 0.00254233 1.37825
522 2 13.5379 5.5067 138.031 -0.00167429 -0.00692259 -0.00319907 -0.693957
525 2 15.5402 2.19415 138.04 0.00343397 -0.00134596 -0.00153012 -0.700237
541 2 13.5356 1.17754 136.482 0.000460613 0.00171246 0.00176966 -0.675054
542 2 15.5018 4.5891 136.481 -0.00265187 0.00346588 0.00196511 -0.683044
157 1 17.4541 3.36905 137.328 -0.000518044 0.00195504 -2.81572e-05 1.38428
526 2 17.4325 5.57352 138.062 -0.0106337 0.000291934 -0.0045579 -0.682806
506 2 15.623 6.51687 139.617 0.000124642 -0.00352603 -0.000774133 -0.679252
138 1 13.5748 5.52327 140.418 0.00122699 0.000505848 0.000356412 1.41127
141 1 15.5514 2.19718 140.441 -0.000213764 0.00193585 0.0011677 1.38989
494 2 15.4923 4.44917 141.237 0.00246655 -0.00373245 0.00179264 -0.693357
505 2 13.5651 3.26399 139.766 -0.000953224 0.00161826 0.00315727 -0.714075
493 2 13.5402 1.06553 141.243 -0.00104725 -0.00128504 0.0049225 -0.671685
509 2 17.4863 3.36746 139.765 -0.00344844 -0.0044288 0.000450889 -0.70255
142 1 17.4072 5.60122 140.515 0.00312618 0.000416952 0.000244691 1.42232
158 1 19.4128 6.64947 137.259 0.00148448 -0.00151408 -0.00165287 1.36835
510 2 19.3989 6.65635 139.699 0.00458361 0.00720505 0.000100429 -0.690533
531 2 5.90592 7.84343 136.395 0.00049179 -0.000897923 0.007669 -0.711996
483 2 5.85086 7.82282 141.318 0.0027454 0.000101281 -0.00280531 -0.686941
515 2 7.85459 8.9132 138.055 -0.00151471 0.00292386 -0.00199413 -0.725635
532 2 7.89769 11.2541 136.528 -0.002421 0.00336837 0.00153046 -0.717721
535 2 9.72597 7.81449 136.408 -0.00103413 -0.000951989 0.0070237 -0.696543
147 1 9.75516 10.0472 137.292 0.00035121 0.00219771 0.000924725 1.43344
148 1 11.6257 13.4416 137.278 -0.000970397 -0.00105321 0.000928343 1.38078
516 2 9.71811 12.3428 138.088 0.00306888 0.00020896 -0.00633919 -0.711078
519 2 11.5991 8.97686 137.98 0.00435383 0.00406165 0.00115107 -0.69801
536 2 11.5672 11.112 136.543 -0.00649602 0.00539934 -0.00107329 -0.703999
131 1 7.79272 8.89808 140.503 0.00222754 -0.0011492 -0.00145593 1.38992
484 2 7.69035 11.0942 141.28 -0.00479873 0.00483697 0.00280489 -0.65498
500 2 11.7084 13.525 139.708 0.00260605 -0.00196745 -0.00652495 -0.664982
499 2 9.68861 10.0751 139.712 -0.000497118 0.00341772 -0.00846478 -0.70282
132 1 9.70862 12.3555 140.412 0.000190392 -2.37309e-05 0.000569971 1.39738
135 1 11.6085 8.99835 140.464 0.000783348 -0.000338484 0.000571989 1.36486
487 2 9.77588 7.81274 141.162 0.00844106 -0.00184438 -0.00648285 -0.715523
488 2 11.6672 11.3545 141.224 0.000789224 -0.00716091 0.0074733 -0.712436
539 2 13.4627 7.85233 136.412 0.00132453 0.0059556 0.00531379 -0.69807
151 1 13.5188 10.1114 137.206 0.00149588 -0.00110401 -0.000436711 1.40663
152 1 15.4937 13.3692 137.299 0.000649471 0.000303724 -0.000578073 1.38108
520 2 13.5287 12.1742 138.033 0.00115778 -0.000961758 -0.000992325 -0.691211
523 2 15.5222 8.90121 138.004 -0.000102091 -0.000414437 0.00437033 -0.675883
540 2 15.5732 11.0742 136.498 0.00236839 0.00187571 0.00394551 -0.68394
155 1 17.497 10.0092 137.288 0.000454484 -0.00100106 0.000183769 1.39764
524 2 17.5149 12.2085 137.992 0.00741187 0.00562816 -0.00531394 -0.692601
543 2 17.4901 7.88463 136.432 0.00133272 0.00024303 -0.000553216 -0.689811
503 2 13.5239 10.14 139.787 -0.00106195 0.00482995 0.0011827 -0.701587
504 2 15.4077 13.4147 139.678 -0.00251386 -0.00401781 0.00108401 -0.707558
491 2 13.6385 7.76628 141.139 2.00027e-06 0.00304466 -0.00104813 -0.693181
136 1 13.5929 12.2378 140.532 -0.0013888 -0.00064738 0.00111782 1.42114
139 1 15.434 8.93684 140.5 0.00226117 0.00192165 0.000562822 1.36599
492 2 15.4837 11.2229 141.177 -0.000605561 0.00228996 0.00636328 -0.707653
495 2 17.4073 7.69288 141.291 0.00637216 0.000740991 0.00563111 -0.689539
140 1 17.3698 12.2621 140.514 -0.00193087 0.000479747 -0.00101284 1.39308
507 2 17.3441 10.0039 139.697 -0.0031126 0.0104392 -0.00300639 -0.682258
156 1 19.3571 13.3708 137.26 7.46839e-05 -0.000580563 0.00121939 1.38635
159 1 21.3532 9.99031 137.303 0.000582827 -0.000182266 0.00189336 1.38188
160 1 23.3025 13.3729 137.25 -0.000706856 0.00118532 0.000254999 1.38589
527 2 19.4818 8.88381 138.158 -0.000310808 0.00926536 0.000892444 -0.699372
528 2 21.1711 12.2411 138.067 0.000669524 0.00107095 0.00300599 -0.695454
544 2 19.3404 11.0599 136.455 0.00845231 -0.00516002 0.00532092 -0.68901
496 2 19.3711 11.2465 141.086 0.000825727 0.00595153 -0.0022105 -0.724038
512 2 23.358 13.3815 139.736 -0.00126321 0.00408645 -0.000223438 -0.694083
508 2 19.3069 13.4838 139.728 0.00246673 0.00303651 0.000534103 -0.696949
511 2 21.2647 10.059 139.593 0.000562046 -0.00080366 0.000822513 -0.697276
143 1 19.3843 8.90978 140.447 0.000281144 -0.000203138 0.00202416 1.37439
144 1 21.1644 12.188 140.44 0.00127464 0.00164761 -0.00145628 1.40837
449 2 5.76139 3.39025 144.464 0.00469814 0.00079158 0.00052472 -0.671678
465 2 3.85634 2.27898 143.033 -0.00206642 -0.00161489 0.000919862 -0.698904
466 2 5.83475 5.67961 142.883 0.00247834 0.00444625 0.000657155 -0.675785
113 1 1.99376 1.07333 143.739 0.00033596 0.000639697 9.51104e-05 1.41797
114 1 3.80688 4.47122 143.661 -0.00162073 0.000157364 0.000624168 1.42734
117 1 5.75393 1.22716 143.749 0.000331367 -0.000672059 0.000803805 1.40086
434 2 3.88685 4.55286 146.111 -0.000605752 -0.00761228 -0.00250126 -0.688378
437 2 5.91368 1.16812 146.017 -0.00185652 -0.00268072 0.000687 -0.714638
433 2 2.02292 1.06732 146.102 0.00294572 -4.83554e-05 0.00362033 -0.717486
97 1 5.71899 3.40247 146.884 0.000399633 0.00107755 -0.00132946 1.41437
417 2 3.97122 2.27537 147.606 3.47835e-05 -0.00141725 0.000157679 -0.746784
418 2 5.86937 5.50802 147.704 0.00132769 0.00269469 -0.00520888 -0.687388
118 1 7.8292 4.46541 143.657 -0.0026398 -0.00214739 0.00044815 1.41446
438 2 7.70588 4.38694 146.034 -0.00586751 -0.00324659 -0.00605965 -0.656909
450 2 7.68598 6.50528 144.565 -0.00797575 -0.0010732 -3.80248e-05 -0.7032
469 2 7.63133 2.39957 142.83 -0.0007251 0.00631156 0.00792739 -0.688022
121 1 9.7016 1.13406 143.651 0.000439093 -0.000981302 -0.000399729 1.40676
122 1 11.6977 4.51295 143.699 0.000212468 -0.00205735 0.00026642 1.39191
442 2 11.5951 4.48973 145.981 0.00241894 0.00267494 -0.000443247 -0.666073
453 2 9.61018 3.31778 144.464 0.0057572 -0.00398369 -0.0021708 -0.711476
454 2 11.7708 6.70457 144.532 0.00311363 0.00391946 -0.0102794 -0.671635
470 2 9.80936 5.744 142.802 0.000210285 0.00621898 -0.00426404 -0.709032
473 2 11.6909 2.23567 142.89 -0.00584385 0.00426236 0.00333966 -0.680199
441 2 9.77724 1.11361 145.998 -0.00485214 -0.0012391 -0.00372657 -0.709737
98 1 7.79366 6.72141 146.843 -0.000377245 0.00153206 -0.00089515 1.40003
421 2 7.89865 2.35506 147.646 -0.00389499 0.00493676 -0.00359696 -0.688273
422 2 9.61506 5.67727 147.656 -0.00625994 0.000170172 -0.000845261 -0.707695
101 1 9.6257 3.32199 146.825 0.000382468 0.000970754 -0.000430159 1.40277
102 1 11.7125 6.77275 146.983 0.00330184 -0.00236821 -0.00094164 1.42164
425 2 11.6078 2.27236 147.688 -0.00362639 -0.00405229 0.00147821 -0.710972
126 1 15.468 4.42493 143.593 0.00116846 0.000211207 -0.000618967 1.38476
446 2 15.5423 4.6136 146.012 -0.00361434 -0.00232047 -0.00257584 -0.665667
457 2 13.4698 3.40823 144.53 0.00181068 0.00197571 0.00357524 -0.710643
458 2 15.4664 6.82012 144.439 -0.00299236 0.00568042 -0.00449636 -0.67223
474 2 13.5855 5.54489 142.849 -0.00155626 0.01076 -0.000373637 -0.683831
477 2 15.4442 2.25589 142.857 -0.000918118 0.00601589 0.00247641 -0.691094
125 1 13.5541 1.13884 143.652 0.00133351 0.00168499 0.000978509 1.37007
445 2 13.6337 1.16658 146.109 0.00332405 0.00497039 0.00221961 -0.691081
461 2 17.4448 3.41925 144.467 -0.000710112 -0.00394855 0.00288352 -0.693061
478 2 17.4067 5.56919 142.869 -0.00230672 -0.000935278 -0.0053362 -0.720789
105 1 13.5389 3.36473 146.826 -0.000835859 0.00207894 0.00152511 1.40751
106 1 15.5424 6.69137 146.879 0.000406143 -0.000913324 -0.00131815 1.3834
426 2 13.4882 5.5331 147.586 0.00432397 -0.00284989 -0.00126877 -0.691084
429 2 15.482 2.37239 147.511 0.00421112 0.00376026 -0.0024789 -0.694847
109 1 17.4741 3.40036 146.902 -0.00207901 -0.00344606 -0.000992465 1.38555
430 2 17.4289 5.57314 147.699 -0.00341283 -0.00215073 0.000185913 -0.698204
462 2 19.3598 6.66683 144.45 0.00476331 -0.00350766 0.000234816 -0.684117
110 1 19.3724 6.80617 146.941 -0.000193482 0.00107839 0.000471335 1.40102
115 1 5.8277 7.70578 143.669 0.000792027 0.00109908 -0.000205132 1.41203
435 2 5.85975 7.82923 145.99 0.000853822 0.00365099 0.00435544 -0.688985
467 2 7.72618 8.86703 142.883 0.00482543 -0.00266189 -0.00722022 -0.683261
436 2 7.75489 11.248 145.997 -0.00405307 0.00103366 -0.00626748 -0.696179
116 1 7.8437 11.2002 143.723 -0.000777669 0.00210686 -0.00177855 1.41532
439 2 9.77303 7.79802 146.022 0.00652491 -0.00135419 -0.000683612 -0.69317
119 1 9.67995 7.82824 143.65 0.0029036 0.00379017 -0.000517945 1.34296
120 1 11.6431 11.2826 143.611 -0.000256002 -0.000626258 -0.00100335 1.39089
440 2 11.5214 11.172 145.998 -0.00128256 -0.00293148 0.000822731 -0.676278
451 2 9.62629 10.1301 144.403 -0.00324812 -0.00170822 -0.00217594 -0.700544
452 2 11.6077 13.4178 144.369 0.00325766 -0.00294912 0.00486518 -0.721958
468 2 9.70154 12.4535 142.871 -0.0113601 -0.00238087 -0.000755857 -0.703712
471 2 11.6344 9.04853 142.89 0.00131503 -0.00310385 -0.00765146 -0.70831
419 2 7.70468 8.95822 147.608 -0.00235189 -0.00264561 -0.00781406 -0.661865
420 2 9.61086 12.2882 147.651 -0.00158424 0.0024531 0.00640889 -0.684319
99 1 9.72816 10.0653 146.865 -0.000435615 -0.000986853 -0.0013027 1.38127
100 1 11.6399 13.4258 146.902 -0.000700404 -0.00255497 -0.00102099 1.34673
423 2 11.6891 9.08103 147.733 0.00195458 0.00166887 -0.00249272 -0.701223
443 2 13.5032 7.86585 146.135 0.00372367 -0.00392102 0.00113802 -0.694241
123 1 13.5212 7.88002 143.689 0.000399334 0.00162906 0.000262366 1.37269
124 1 15.6084 11.2183 143.709 -0.0022926 -0.00114976 0.000946828 1.39309
444 2 15.5319 11.2299 146.07 0.00191299 -0.00282382 0.00014947 -0.689071
455 2 13.6428 10.0287 144.526 0.000454182 0.0013746 -0.00111397 -0.67037
456 2 15.6159 13.5066 144.356 0.00132508 0.000823616 -0.00557396 -0.688248
472 2 13.6063 12.233 142.929 0.00805119 0.00377249 -0.00731376 -0.689206
475 2 15.5275 9.00309 142.888 0.00987544 -0.000549428 -0.0010173 -0.680742
447 2 17.4567 7.72316 146.045 -0.0072587 0.00348674 0.0135536 -0.700072
476 2 17.4023 12.1247 142.787 0.00755608 0.00101274 0.0073432 -0.723582
127 1 17.3965 7.74146 143.682 0.000804144 -0.000723018 0.00088474 1.4041
459 2 17.4158 9.99845 144.608 -0.00402847 -0.000134058 -0.00164721 -0.687257
103 1 13.5823 10.0406 146.872 -0.0007515 -0.0016652 0.00013043 1.40049
104 1 15.4919 13.4404 146.903 -0.000168832 0.00171063 -0.0011082 1.37345
424 2 13.557 12.2186 147.598 0.0036834 0.000929833 0.00980884 -0.697147
427 2 15.4808 8.95988 147.726 -0.00326723 0.00519315 0.00375392 -0.707061
428 2 17.283 12.3015 147.778 -0.00081952 -3.59028e-05 -0.00133042 -0.698836
107 1 17.4324 10.0781 146.857 0.00177161 -0.000753752 0.0011715 1.3707
479 2 19.2841 8.94477 142.843 0.000147058 -0.00664045 -0.00114879 -0.701246
460 2 19.2854 13.4525 144.389 -0.0064231 -0.0061107 0.0101461 -0.68793
464 2 23.2196 13.4209 144.413 -0.00542643 0.00169775 0.0035467 -0.716418
128 1 19.3823 11.0996 143.582 0.00192542 -0.000542911 -0.000767665 1.36192
480 2 21.2153 12.1652 142.834 -0.00318919 0.00631392 0.00333722 -0.671088
448 2 19.3062 11.1654 146.019 0.000582616 0.00330347 -0.00161116 -0.71145
463 2 21.4508 10.0531 144.389 -0.0055318 -0.000731401 0.00254886 -0.673573
108 1 19.3318 13.4529 146.809 -0.000716953 0.000462585 0.00113925 1.38363
111 1 21.2507 10.1188 146.774 -0.00149459 0.000911227 0.000930776 1.36789
112 1 23.2647 13.4422 146.797 0.00208501 -0.000185812 0.000136928 1.38951
431 2 19.4061 8.8661 147.71 0.00267242 -0.00866467 0.000701962 -0.729422
432 2 21.1809 12.4093 147.538 -0.00361799 0.00490454 0.00142943 -0.691562
81 1 3.91916 2.24306 150.013 -0.000289026 -0.000720985 0.0018285 1.39727
82 1 5.87339 5.60185 150.057 -0.000390118 0.000436946 -0.00020941 1.38223
369 2 3.83001 2.1509 152.447 0.00363217 -0.00217899 -0.0037737 -0.655338
370 2 5.73161 5.61593 152.411 -0.00370355 -0.00779827 -0.00329725 -0.680011
401 2 5.86013 3.27596 149.271 -0.00507044 -0.00128261 -0.00444662 -0.69984
69 1 5.79638 1.09126 153.241 0.00198824 -0.00177104 0.00140654 1.38855
386 2 3.83683 4.38825 150.879 -0.00281902 -0.00471113 0.00608668 -0.685512
385 2 1.9206 1.0318 150.8 -0.00435999 0.000826678 -0.00363561 -0.6636
65 1 1.83226 1.08225 153.181 0.00219308 -0.00125077 -0.00155816 1.39452
66 1 3.81355 4.41268 153.214 -0.00105981 0.00129441 0.00119685 1.43168
389 2 5.66821 1.1608 150.825 0.00626164 -0.00177272 0.000256394 -0.711828
353 2 5.64556 3.24132 154.024 -0.00292894 0.00409812 -0.00389104 -0.672343
85 1 7.74426 2.22637 150.063 0.000792756 -0.00102616 0.00503475 1.40775
373 2 7.73169 2.29911 152.471 -0.000430094 0.0040307 -0.00151391 -0.72553
390 2 7.7544 4.53156 150.795 -0.00050892 0.00474479 -0.00229241 -0.716656
402 2 7.68545 6.87413 149.213 -0.00461059 -0.00328726 0.00186486 -0.702386
70 1 7.74378 4.47826 153.224 -0.00134317 0.00150222 -0.00109537 1.36622