ITEM: TIMESTEP
500000
ITEM: NUMBER OF ATOMS
96
ITEM: BOX BOUNDS pp pp pp
-3.2936432833181151e-02 1.0967836432833526e+01
-3.2936432833181151e-02 1.0967836432833526e+01
-3.2936432833181151e-02 1.0967836432833526e+01
ITEM: ATOMS id type x y z vx vy vz q
1 1 10.9505 0.0106732 0.0611678 0.000485612 0.00188384 -2.55931e-05 1.36664
2 1 0.0603152 2.69121 2.67749 0.000686675 -0.00010871 0.00217554 1.40323
3 1 2.75314 -0.0161564 2.79315 0.00157733 -0.00127501 0.00204166 1.37259
4 1 2.75839 2.68359 10.8459 -0.00110678 -0.000540567 5.13562e-05 1.39226
5 2 1.26647 1.28279 3.95023 0.00597892 -0.000579784 0.00129693 -0.704088
6 2 1.37933 4.06764 4.11417 0.00853893 0.00260355 -0.00248242 -0.679278
7 2 1.28481 4.08141 1.3007 -0.00507613 0.000378702 -0.00185576 -0.665553
8 2 1.40735 1.43274 1.31265 -0.00185219 -0.00183651 0.00273712 -0.691856
9 2 4.16029 1.33167 1.27598 0.00239264 -0.00197192 -0.0126535 -0.694925
10 2 4.06076 4.12175 1.38578 0.00398389 -0.00421074 0.000323156 -0.661803
11 2 4.14182 4.09214 3.93886 -0.00428148 -0.00641564 0.00466018 -0.675446
12 2 4.04605 1.4438 4.06783 -0.000600717 0.00108288 -0.00710551 -0.743569
13 1 10.9297 -0.0166152 5.48931 0.000158801 -0.00144986 0.00229925 1.39461
14 1 10.9152 2.69382 8.20089 0.000346415 0.00169997 0.00139539 1.36261
15 1 2.67048 -0.0167465 8.22567 -0.000489577 0.00129163 0.000956845 1.40284
16 1 2.69482 2.71001 5.37723 0.00410441 -0.00122529 -0.00156789 1.36832
17 2 1.29685 1.45521 9.52906 -0.00442614 0.00274063 -0.00518012 -0.706706
18 2 1.38824 4.10793 9.60717 0.00197684 -0.00382156 0.00665346 -0.680244
19 2 1.28497 4.12065 6.6537 0.00185638 0.00218049 -0.00424089 -0.688818
20 2 1.21049 1.35815 6.70716 0.000174719 0.0020853 -0.00177759 -0.690696
21 2 4.01075 1.40593 6.86869 0.000851075 -0.00357395 0.000588726 -0.694643
22 2 4.17397 4.2979 6.77245 0.00498778 0.00351214 0.000106128 -0.702494
23 2 4.14841 4.07184 9.55855 -0.00177199 -0.000192333 -0.00159199 -0.708122
24 2 4.02244 1.32439 9.53096 -0.000407358 -0.0016112 0.00732759 -0.681543
25 1 -0.0314668 5.48318 10.948 0.00294703 -0.000841197 -0.000309319 1.36605
26 1 0.0190578 8.2828 2.78746 0.000787852 -8.50923e-06 -0.000676959 1.37174
27 1 2.81125 5.46228 2.7046 -0.000630873 -0.00207975 0.00184441 1.39706
28 1 2.68693 8.27512 0.0636697 -0.00216144 -1.67223e-05 -0.000689557 1.36811
29 2 1.3696 6.83864 4.21781 -0.00393411 0.00177989 0.0016809 -0.691949
30 2 1.31171 9.60718 4.11568 -0.000451857 -0.00806078 -0.000384786 -0.734218
31 2 1.43915 9.63881 1.36254 -0.00618591 -0.00317624 0.00155224 -0.717138
32 2 1.36719 6.85172 1.34318 0.00307925 0.00372695 -0.00172777 -0.688208
33 2 4.06297 6.89323 1.42954 -0.00304168 -0.00524605 -0.00118226 -0.69155
34 2 4.2092 9.6259 1.36384 -0.00197449 0.00715884 -0.000776942 -0.695415
35 2 4.12841 9.61269 4.13219 -0.00477666 -0.00358799 -0.00178847 -0.684473
36 2 4.10473 6.86212 4.03854 -0.00476094 -0.0014949 -0.00361304 -0.673741
37 1 10.9432 5.45452 5.48613 -0.000425257 -0.00121216 -0.0017397 1.41358
38 1 10.9574 8.24451 8.29482 -0.000872569 -0.000549669 0.00106464 1.38925
39 1 2.72688 5.51308 8.11656 -0.000236264 -0.000418034 -0.000599593 1.36682
40 1 2.60567 8.27361 5.4917 -0.00042404 -0.000379654 -0.000466215 1.36719
41 2 1.26167 6.89918 9.55041 -0.00297986 -0.00221577 0.00512041 -0.675713
42 2 1.32694 9.63679 9.60019 0.0020076 -0.00457355 0.00230122 -0.688804
43 2 1.31495 9.67635 6.93425 -0.00426699 -0.00136913 -0.00918846 -0.709632
44 2 1.38077 6.86129 6.93844 0.000177693 0.00137531 -0.00245795 -0.695777
45 2 4.12623 6.94802 6.83207 -0.000397973 -0.000588042 0.000123401 -0.677766
46 2 4.0347 9.68852 6.9037 -0.0013036 -0.00758538 -0.00351032 -0.676803
47 2 4.0591 9.526 9.52339 -0.000118701 -0.00202973 -0.00107778 -0.658286
48 2 4.10228 6.79837 9.59854 -0.0023374 -0.0044642 -0.00161977 -0.673481
49 1 5.52371 10.8823 0.0180896 -0.000135586 -0.000931046 0.000639675 1.41452
50 1 5.45757 2.57012 2.70189 -0.00148843 0.00079307 0.000702821 1.40951
51 1 8.27951 10.9398 2.70669 0.000128567 0.00166729 -0.00296037 1.36486
52 1 8.20155 2.69221 10.9446 -8.70588e-05 0.000586018 0.000219073 1.36995
53 2 6.80157 1.35882 4.13725 -0.0045149 -0.00202904 0.00443768 -0.68364
54 2 6.90421 3.97234 4.05022 0.00262761 0.00506575 0.000357398 -0.671384
55 2 6.79903 4.00637 1.31944 0.0020365 -0.00179558 0.00960861 -0.672346
56 2 6.84342 1.26421 1.28614 -0.00101706 -0.000277056 -0.00151721 -0.705508
57 2 9.62874 1.28005 1.34206 0.00183376 0.00416319 -0.00204404 -0.713732
58 2 9.56385 4.14785 1.37233 -0.00050341 0.00351974 0.000394658 -0.691256
59 2 9.71126 4.01631 4.20038 0.000649448 0.00352414 0.00261838 -0.680829
60 2 9.61745 1.30735 3.98563 -0.00321396 -0.00364639 -0.00277993 -0.677207
61 1 5.43172 0.0132972 5.54024 -0.000113135 -0.000725109 -0.00225283 1.36147
62 1 5.39543 2.84317 8.16159 0.000580959 0.00131091 -0.00103038 1.37906
63 1 8.14116 10.9351 8.20093 0.000594806 -0.000948505 -0.000728452 1.36234
64 1 8.24634 2.70676 5.53841 -0.00196523 0.00207777 -0.000122277 1.39136
65 2 6.78377 1.32925 9.59827 0.00100668 0.00505913 -0.00667877 -0.666444
66 2 6.7913 4.2801 9.64066 -0.00569625 -0.00278075 -0.00217809 -0.703181
67 2 6.75523 4.03493 6.74285 0.00276678 -0.00580335 0.00346774 -0.709381
68 2 6.75397 1.40299 6.82091 0.00236608 -0.00242782 0.000687027 -0.690698
69 2 9.56867 1.36701 6.83589 0.00364759 -0.00353051 0.00113035 -0.718541
70 2 9.51448 4.18463 6.83699 0.000115489 0.00177956 0.00929281 -0.701566
71 2 9.48983 4.00934 9.58164 0.00723926 0.00765022 0.0034578 -0.693546
72 2 9.55196 1.29908 9.59743 -0.00218476 0.00224806 -0.00357787 -0.683268
73 1 5.49993 5.52745 10.9367 0.000304827 0.00126777 -0.000847164 1.41407
74 1 5.53542 8.18036 2.75484 -0.00107354 0.000206692 0.00056484 1.41824
75 1 8.25734 5.36589 2.68545 0.000169082 -0.00115112 -0.000911721 1.38816
76 1 8.23082 8.2087 10.9641 0.00159741 -0.00132316 0.000113804 1.4099
77 2 6.84889 6.75194 4.12392 0.00156371 0.00219873 0.00227054 -0.706854
78 2 6.81337 9.45249 4.03769 -0.00904005 -0.000694858 0.000958932 -0.676496
79 2 6.89352 9.52686 1.3102 -0.00689653 0.000788931 -0.00209127 -0.693995
80 2 6.81441 6.81956 1.38209 0.00324396 -0.00177065 -0.00341882 -0.682661
81 2 9.5764 6.68321 1.40243 -0.00123304 0.00993709 0.00173699 -0.664567
82 2 9.63966 9.51217 1.24675 -0.000992481 -0.00208406 0.00422693 -0.697944
83 2 9.58791 9.53603 3.97957 0.00228382 0.00146638 0.00751639 -0.704057
84 2 9.61407 6.84184 4.0588 -0.0012632 0.0011692 0.00042914 -0.676962
85 1 5.55126 5.48208 5.39752 0.00132039 0.00225064 0.00127269 1.39906
86 1 5.43651 8.17771 8.18134 -0.00135309 0.000332239 -0.000697407 1.41973
87 1 8.18364 5.4824 8.19162 0.00095642 -0.000947212 -0.000113556 1.36129
88 1 8.2405 8.18787 5.5281 -0.000469077 0.000408369 -0.000413578 1.34049
89 2 6.72695 6.97245 9.78485 -0.00341203 0.00525651 0.00237623 -0.702811
90 2 6.74234 9.61714 9.64937 0.00524901 0.00280914 0.00438371 -0.68235
91 2 6.77476 9.61416 6.9276 -0.00290542 -0.000442386 0.00457823 -0.706141
92 2 6.76275 6.88515 6.87227 -0.00265141 0.00650361 0.00115101 -0.730505
93 2 9.63683 6.7339 6.94177 0.00445267 0.00257955 -0.0089584 -0.703556
94 2 9.52624 9.67128 6.7397 -0.00344797 -0.00338335 0.00253232 -0.719588
95 2 9.51586 9.49692 9.63618 -0.00315973 0.00991836 0.00405298 -0.691574
96 2 9.56389 6.87439 9.52025 -0.00254157 -0.00188118 -0.00157888 -0.701581
ITEM: TIMESTEP
501000
ITEM: NUMBER OF ATOMS
96
ITEM: BOX BOUNDS pp pp pp
-3.2936432833181151e-02 1.0967836432833526e+01
-3.2936432833181151e-02 1.0967836432833526e+01
-3.2936432833181151e-02 1.0967836432833526e+01
ITEM: ATOMS id type x y z vx vy vz q
1 1 -0.00328616 10.9446 0.0473239 -0.00140199 0.00124223 -0.000868612 1.37716
2 1 10.9669 2.67265 2.66091 0.00175024 -0.0020689 -0.000180765 1.41168
3 1 2.72683 0.00496362 2.71839 -1.87038e-05 0.00080997 0.00056455 1.3526
4 1 2.78523 2.69899 10.9455 0.00138584 -0.00217473 -0.0018035 1.40765
5 2 1.29346 1.39077 4.08728 0.00171005 -0.00439829 -0.00734487 -0.708158
6 2 1.37141 4.05317 4.04319 0.00231295 -0.000856337 0.00251065 -0.677716
7 2 1.42648 4.02449 1.3824 0.000899224 0.00180866 0.000218259 -0.663153
8 2 1.35299 1.37979 1.33288 0.00774643 0.000917844 0.00187572 -0.706799
9 2 4.0207 1.29097 1.31839 0.0075853 -0.000326029 0.00210336 -0.720214
10 2 4.14467 4.1667 1.26552 0.00282928 -0.00383221 -0.00777743 -0.673794
11 2 4.09099 4.1497 3.99214 0.00169328 0.00170685 -0.00241193 -0.705968
12 2 4.09676 1.35703 4.14048 0.000115321 0.00326329 0.00326624 -0.705372
13 1 0.0265256 0.00532673 5.45692 -0.0022371 0.000374911 -0.00108073 1.38843
14 1 10.913 2.74267 8.27207 -0.000619197 -0.000656972 -0.00169992 1.36115
15 1 2.63105 -0.00887097 8.25283 -0.000100456 0.000693641 0.00028747 1.392
16 1 2.66449 2.75248 5.41066 0.0033555 -0.00113016 -0.00136532 1.36544
17 2 1.33257 1.38815 9.547 0.00978963 0.00205746 0.00489553 -0.702564
18 2 1.53656 4.19017 9.63246 0.00029525 -0.00513806 -0.00148527 -0.711469
19 2 1.29471 4.12505 6.73394 -0.00476803 0.00254926 -0.000732218 -0.678346
20 2 1.32184 1.33344 6.83573 -0.00719667 -0.000860876 -0.000456008 -0.693346
21 2 4.09946 1.16758 6.8639 -0.00195056 -0.00425568 0.00553077 -0.701272
22 2 4.03354 4.07183 6.89391 0.00132114 0.000495597 -0.000581111 -0.69269
23 2 4.11235 4.06661 9.53095 -0.00215774 -0.00629877 -0.00289818 -0.66322
24 2 4.05269 1.39802 9.58941 0.000349554 -0.000388855 0.000762633 -0.67759
25 1 -0.0318161 5.51524 10.8639 -0.000356515 -0.00019788 -0.000762887 1.34593
26 1 10.9217 8.25464 2.75306 -0.00230513 0.00267664 -0.000487982 1.38141
27 1 2.74636 5.45125 2.71698 0.000848149 0.000483007 0.00129961 1.43713
28 1 2.80316 8.2062 0.0372035 -0.001491 6.34592e-05 0.00252121 1.3853
29 2 1.42044 6.74449 4.107 -0.000552727 -0.00284853 -0.00307866 -0.686945
30 2 1.34883 9.62991 4.04337 -0.00749409 0.00793298 -0.00690899 -0.693466
31 2 1.2912 9.54487 1.30663 -0.00300868 -0.00274853 0.01299 -0.693787
32 2 1.34121 6.81604 1.46055 -0.006181 0.00162681 -0.000351161 -0.661567
33 2 4.25676 6.86495 1.30939 0.00311768 0.00523171 -0.00377105 -0.67876
34 2 4.20023 9.52282 1.31949 0.00276718 0.00226825 0.00654716 -0.684488
35 2 4.09735 9.50342 4.06909 0.00075056 -0.00213663 0.0115408 -0.707686
36 2 4.07914 6.67759 3.92677 0.00116471 0.00220499 0.000142771 -0.701971
37 1 -0.0225101 5.46441 5.43213 -0.00116715 0.000292164 0.00191444 1.40895
38 1 10.9379 8.31315 8.25657 -0.0012194 -0.000899912 0.00145651 1.38743
39 1 2.64356 5.54171 8.24763 -0.00187562 0.00159565 -0.00248658 1.38924
40 1 2.76344 8.17251 5.41404 0.000733496 0.000122521 0.00141653 1.36323
41 2 1.2946 7.00921 9.74262 -0.00731078 -0.00541473 0.00261992 -0.700723
42 2 1.37378 9.67453 9.64857 -0.00736857 -0.00247973 0.00301483 -0.689553
43 2 1.28708 9.5789 6.74908 -0.00622783 -0.000958339 0.00342203 -0.686217
44 2 1.33421 6.90946 6.87729 0.00135121 -0.00278824 0.00364913 -0.676239
45 2 4.07139 6.71748 6.73973 0.00351634 -0.00450231 -0.00320484 -0.701945
46 2 3.99295 9.49479 6.97402 -0.00536914 0.000680174 0.000406195 -0.677502
47 2 4.07913 9.68366 9.73583 5.74284e-05 -0.00358998 -0.00218653 -0.659461
48 2 4.04145 6.8084 9.50409 0.00486145 -0.000130561 -0.00645259 -0.719079
49 1 5.4822 10.9625 10.9621 -0.000611259 -0.00115337 0.000105692 1.41104
50 1 5.46777 2.67739 2.67227 0.00138913 -0.00411923 0.000644563 1.36501
51 1 8.28564 10.9656 2.73854 0.000296531 0.00131997 0.000178674 1.4276
52 1 8.16664 2.68046 10.8801 -0.000777963 0.00109096 0.00122751 1.40074
53 2 6.97108 1.26607 4.09453 0.000954292 0.0027487 0.0012916 -0.664863
54 2 6.79228 4.0541 3.98239 0.0028257 -0.000673967 -0.0044219 -0.677408
55 2 6.79998 4.04946 1.27906 -0.00129219 0.000612612 0.00378212 -0.698024
56 2 6.82109 1.29434 1.3549 -0.00112214 -0.00194774 -0.00201373 -0.693841
57 2 9.60316 1.36898 1.32248 -0.00210884 -0.00149635 -0.00740224 -0.691561
58 2 9.55318 4.10775 1.27621 0.00147307 -0.013941 -0.00799215 -0.692835
59 2 9.68777 4.10745 3.98663 0.0101843 -0.00485535 0.0052795 -0.679852
60 2 9.62712 1.33719 4.03018 0.00327603 -0.00114389 0.00394639 -0.69655
61 1 5.40048 -0.0154063 5.59008 -0.00142042 -0.000304559 0.000517264 1.35603
62 1 5.39877 2.79929 8.15246 0.000360535 0.000702237 4.66977e-07 1.37424
63 1 8.23394 10.9541 8.25934 -0.00121214 -0.000196703 0.000668333 1.36159
64 1 8.26098 2.71235 5.47764 -0.00212044 -0.000574528 0.000926323 1.34734
65 2 6.78228 1.33262 9.62218 0.00434944 -0.0022656 -0.00521778 -0.68604
66 2 6.98285 4.09222 9.54989 0.00446057 0.0038211 -0.00803888 -0.716861
67 2 6.81236 4.10425 6.80536 -0.00320399 -0.000565587 0.00448342 -0.732466
68 2 6.86637 1.31899 6.88499 0.00350936 0.00675683 0.00393313 -0.673818
69 2 9.60904 1.43457 6.77123 0.000353293 0.00383363 -0.00259553 -0.692806
70 2 9.6764 4.3064 6.74344 -0.00138058 0.00352092 0.00221204 -0.683829
71 2 9.59227 4.00756 9.44543 0.00418737 0.00818039 0.00261248 -0.709021
72 2 9.47238 1.35487 9.56162 -0.00323579 -0.00306597 -0.00024564 -0.716067
73 1 5.56166 5.53721 10.9619 -0.00114334 0.000330271 -0.000203525 1.38461
74 1 5.55292 8.25198 2.75402 -0.000643351 -0.000807121 -8.24378e-05 1.41175
75 1 8.28156 5.42736 2.57724 -0.000606895 0.000188461 -0.00106405 1.35676
76 1 8.14918 8.18255 0.0615231 0.00159173 -0.000940004 -0.000996397 1.418
77 2 6.83672 6.84279 4.25467 -0.00362331 -0.00360642 -0.0028819 -0.682418
78 2 6.87278 9.58072 4.16707 0.00351145 0.00107263 0.00637055 -0.658904
79 2 6.89737 9.58778 1.47907 0.00166234 -0.00438797 0.00318561 -0.691744
80 2 6.8717 7.00977 1.3495 0.00797207 0.00201172 -0.00951804 -0.738834
81 2 9.57234 6.85861 1.30935 0.00392728 0.00321224 0.000446286 -0.696665
82 2 9.56411 9.82023 1.42906 0.0109087 0.000842422 0.00400229 -0.71596
83 2 9.62378 9.5189 4.16926 0.00254159 0.000143319 -0.00175914 -0.680861
84 2 9.67256 6.82962 4.00096 0.00695698 0.00367152 -0.0024389 -0.6932
85 1 5.42398 5.43166 5.37482 0.000266298 0.000291867 -0.000456962 1.38231
86 1 5.45354 8.10999 8.21402 -0.000810966 0.000369587 -0.00140012 1.38504
87 1 8.09371 5.42701 8.15945 0.00158073 0.00340368 0.00100011 1.40823
88 1 8.23893 8.13103 5.60348 0.000907903 -0.000200004 0.000103088 1.35444
89 2 6.8083 6.8 9.63349 -2.50572e-05 0.000928458 -0.00275132 -0.724503
90 2 6.74229 9.5517 9.70579 0.00240325 0.00460335 -0.000921248 -0.672602
91 2 6.74272 9.5664 7.06576 -0.00179837 -0.00369078 0.00648972 -0.675125
92 2 6.91812 6.87317 6.89991 0.00661653 -0.00410713 -0.00783786 -0.734494
93 2 9.69484 6.79182 7.08142 0.00538286 0.00581348 0.000955976 -0.677669
94 2 9.53756 9.61668 6.86634 0.00128767 -0.000584743 -0.000224421 -0.707522
95 2 9.61633 9.44183 9.66686 0.00109026 0.0036685 0.0116514 -0.696937
96 2 9.5018 6.88033 9.72367 0.000505837 0.00660686 -0.00929595 -0.645118
ITEM: TIMESTEP
502000
ITEM: NUMBER OF ATOMS
96
ITEM: BOX BOUNDS pp pp pp
-3.2936432833181151e-02 1.0967836432833526e+01
-3.2936432833181151e-02 1.0967836432833526e+01
-3.2936432833181151e-02 1.0967836432833526e+01
ITEM: ATOMS id type x y z vx vy vz q
1 1 -0.0258589 10.9341 -0.0205707 -0.00187285 0.00172157 0.00228363 1.39279
2 1 0.00231315 2.69523 2.69787 0.0026205 0.000181276 -0.00266307 1.40504
3 1 2.73058 -0.00345379 2.7822 0.00172312 -0.000577785 -0.000139486 1.40344
4 1 2.69658 2.73236 10.9635 0.000449063 4.32822e-05 0.00167672 1.3688
5 2 1.41381 1.40258 4.09143 -0.00736003 -0.000937685 0.00375455 -0.723074
6 2 1.33982 4.03398 3.96416 -0.00236954 0.00125756 0.00309686 -0.69979
7 2 1.2749 4.14417 1.35093 -0.00338356 -0.001212 0.00701706 -0.667899
8 2 1.36546 1.3651 1.39027 0.00260814 -0.00253077 -0.000746118 -0.700696
9 2 4.14521 1.18443 1.25227 -0.0049252 -0.000983183 0.00189939 -0.670015
10 2 4.00998 4.02521 1.31747 -0.00323482 -0.00189624 -0.00489716 -0.691859
11 2 4.02001 4.03925 3.97231 -0.000768492 -0.00572683 0.00479813 -0.712031
12 2 3.98929 1.2038 4.09807 -0.00588429 0.00664078 0.0060137 -0.708405
13 1 -0.0311091 10.9415 5.45669 0.000328958 0.0017241 -0.000793377 1.38871
14 1 0.0229916 2.71096 8.24823 0.00168077 0.00145297 0.00107483 1.40436
15 1 2.71815 -0.0319159 8.26245 -9.36851e-05 -0.000288049 -0.00125844 1.35641
16 1 2.60481 2.72481 5.41862 -0.000344239 0.000214167 0.000937643 1.40545
17 2 1.34275 1.33219 9.65034 -0.000818518 0.00263255 -0.00168318 -0.702185
18 2 1.36341 4.13847 9.62893 -0.0006048 0.00448067 -0.00383817 -0.708244
19 2 1.2109 4.04218 6.81795 1.00089e-05 -0.00293249 1.78204e-05 -0.70019
20 2 1.36148 1.38903 6.92061 -6.07199e-05 0.00398491 0.00496788 -0.693799
21 2 4.04471 1.5029 6.80569 0.00258317 0.00177282 -0.00325439 -0.678033
22 2 3.93985 4.07488 6.87821 0.00443019 0.00167939 -0.000619861 -0.696596
23 2 4.14543 4.15274 9.59367 -0.00584519 -0.00962041 0.00524592 -0.67303
24 2 4.18279 1.34623 9.57454 0.00438594 0.00684013 0.0047199 -0.675645
25 1 10.9141 5.50773 10.946 0.000291592 -0.00159875 -0.00034161 1.38319
26 1 0.0164961 8.22032 2.75246 0.000240132 -0.00167546 0.00011501 1.37042
27 1 2.70509 5.49214 2.68955 0.00207037 -0.00150782 -0.000360983 1.4304
28 1 2.81366 8.26037 -0.0117471 -0.000893246 0.000599474 0.00111047 1.38823
29 2 1.32176 6.76674 4.06999 0.00162454 -0.0016116 -0.00486226 -0.683233
30 2 1.37235 9.55953 4.23877 -2.02145e-05 0.00118505 0.00246249 -0.703776
31 2 1.43591 9.54325 1.43743 -0.000618628 -0.00497203 -0.000864431 -0.693861
32 2 1.49055 6.84514 1.40003 0.00358711 0.00323466 -0.0025077 -0.679768
33 2 4.1357 6.80312 1.30012 -0.00299463 0.00731323 4.95574e-05 -0.700864
34 2 4.16329 9.60945 1.34978 0.000566457 0.00399753 0.00210814 -0.668304
35 2 4.07804 9.55815 4.09771 -0.000353812 0.00181453 -0.00373896 -0.708508
36 2 3.96277 6.77385 4.10358 0.0027667 0.00242936 -0.00200218 -0.699834
37 1 10.9468 5.40535 5.44155 0.000238359 0.00193538 -0.00137072 1.39796
38 1 -0.0285736 8.26215 8.20998 -0.000431505 2.7686e-05 0.000885241 1.37252
39 1 2.6871 5.47309 8.26381 0.00173557 0.00184723 -0.00156111 1.37726
40 1 2.72601 8.22957 5.45932 -0.00190268 0.000394205 -0.000688382 1.37802
41 2 1.36967 6.85518 9.55754 -0.00276396 -0.00147131 -0.00664818 -0.680395
42 2 1.28043 9.69209 9.72125 -0.00486823 0.00239984 -0.00386765 -0.698821
43 2 1.30824 9.52819 6.87038 0.000603196 0.00286368 0.00448045 -0.694484
44 2 1.21157 6.79784 6.82813 -0.00110693 -0.000182048 -0.00614947 -0.67318
45 2 4.21025 6.80082 6.82073 -0.00385211 0.000780477 -0.00905058 -0.704883
46 2 4.01561 9.59548 6.91395 -0.000456745 0.00142936 -0.00200896 -0.712663
47 2 4.0905 9.6411 9.74065 0.000213907 0.00420561 0.00532909 -0.708283
48 2 4.0746 6.85007 9.54547 0.00023772 0.000398835 -0.00728524 -0.687633
49 1 5.50073 -0.028862 10.9461 -6.08069e-05 -0.00227759 -7.42326e-05 1.41542
50 1 5.45719 2.72368 2.72731 0.000433105 -0.000853373 -0.00069118 1.33182
51 1 8.2681 10.9472 2.70113 -0.0014106 0.000467803 0.000758536 1.40369
52 1 8.18583 2.75674 10.93 9.32312e-05 0.000751814 -0.0034974 1.39558
53 2 6.8618 1.34062 4.10836 0.00236326 -0.00290051 -0.00261346 -0.668594
54 2 6.96536 4.06441 4.04 -0.00524483 6.76162e-05 -0.0029903 -0.710865
55 2 6.88283 4.15027 1.19446 -0.000374462 -0.000864453 -0.00984163 -0.704672
56 2 6.89752 1.34688 1.41825 0.000349033 0.00191728 -0.00120097 -0.675254
57 2 9.60321 1.37049 1.25924 0.00540249 -0.00366364 0.000164562 -0.68417
58 2 9.60805 4.22397 1.23457 0.00112746 -0.00448593 0.000873977 -0.670812
59 2 9.63609 4.08161 3.95713 0.00271467 0.00441474 0.00318423 -0.704646
60 2 9.63468 1.31999 4.01703 0.00102136 -0.00318648 -0.00176447 -0.708677
61 1 5.40962 -0.0290979 5.46022 -0.000695038 -0.000852742 -0.000432387 1.34
62 1 5.45576 2.74003 8.16391 -0.000624018 0.00210999 -0.000585341 1.39506
63 1 8.25641 10.9496 8.17558 0.000936378 -0.00124843 0.00379994 1.38271
64 1 8.28915 2.75897 5.44436 -0.00116791 0.00162115 -0.000939996 1.37265
65 2 6.79083 1.33356 9.61714 0.00316125 0.00305968 0.00332249 -0.674986
66 2 6.83418 4.05184 9.56464 0.00492722 0.00453138 -0.00599938 -0.699125
67 2 6.81399 4.10642 6.79902 -0.00345876 -0.0088514 -0.00143471 -0.718725
68 2 6.85956 1.33628 6.93938 -0.00584613 0.00671342 -0.00190014 -0.679244
69 2 9.6369 1.30974 6.90963 -0.00240018 0.00260976 -0.00637457 -0.68309
70 2 9.60142 3.9633 6.74728 -0.00710517 0.00290357 0.00166292 -0.685065
71 2 9.56507 4.00197 9.44314 -0.00326639 -0.00124777 -0.00280515 -0.685852
72 2 9.58046 1.28104 9.69177 -0.00411938 -0.00591275 -0.00181585 -0.667641
73 1 5.52676 5.46401 -0.0093775 0.000911146 -6.14022e-05 0.00186298 1.40259
74 1 5.48313 8.2081 2.74624 -0.000184037 0.00066475 0.00252699 1.34618
75 1 8.19107 5.49028 2.78203 0.00183238 -0.00027014 -0.00107215 1.38084
76 1 8.17044 8.27442 -0.00781162 0.000644304 0.000833776 0.00045752 1.40218
77 2 6.86972 6.8333 4.09669 -0.00352067 -0.0042781 -0.00224608 -0.69898
78 2 6.97422 9.6052 4.07051 0.000209706 -0.00130983 -0.00235991 -0.680064
79 2 6.92203 9.62127 1.32927 0.00828884 -0.00162584 0.00191896 -0.696825
80 2 6.86884 6.86169 1.35325 -0.0020257 -0.000885795 -0.00495196 -0.699424
81 2 9.65878 6.93959 1.27284 -0.00129371 -0.0020986 -0.00394675 -0.676966
82 2 9.50426 9.56097 1.4128 0.00370016 -0.00360142 0.00291071 -0.702807
83 2 9.72836 9.58546 4.16406 -0.0029989 0.00158559 0.00710046 -0.682248
84 2 9.56744 6.83671 4.19028 0.00505049 0.00614395 0.000857262 -0.683994
85 1 5.40037 5.38095 5.48035 -0.000466766 -0.000656417 -0.000163918 1.33732
86 1 5.46294 8.19316 8.17171 -0.00236239 -0.00451295 0.00191743 1.35807
87 1 8.11708 5.45663 8.19839 -0.000851685 0.000567755 4.87533e-05 1.38656
88 1 8.22255 8.19332 5.51093 0.00104135 -0.0010048 0.000907159 1.40891
89 2 6.85957 6.75015 9.65692 0.000989529 -0.00923713 -0.00180847 -0.702919
90 2 6.90284 9.52648 9.55138 -0.000839672 -0.00101448 0.00579684 -0.701286
91 2 6.79907 9.54677 6.81763 -0.000705279 0.00473187 0.00866942 -0.694453
92 2 6.9572 6.81222 6.85493 0.0057162 -0.00566506 -0.00120519 -0.699273
93 2 9.55272 6.80644 6.75776 -0.00828646 -0.00306173 0.00953697 -0.661926
94 2 9.56956 9.68787 6.79109 0.000437704 -0.00198688 -0.00450501 -0.709865
95 2 9.62056 9.57024 9.63003 -0.00018984 0.000998591 -0.00355508 -0.695086
96 2 9.64935 6.83571 9.526 0.000656405 0.00092692 -0.00727465 -0.675056
ITEM: TIMESTEP
503000
ITEM: NUMBER OF ATOMS
96
ITEM: BOX BOUNDS pp pp pp
-3.2936432833181151e-02 1.0967836432833526e+01
-3.2936432833181151e-02 1.0967836432833526e+01
-3.2936432833181151e-02 1.0967836432833526e+01
ITEM: ATOMS id type x y z vx vy vz q
1 1 0.020443 10.9218 10.9147 0.00137673 0.00074333 0.000783885 1.36312
2 1 -0.0326215 2.67324 2.73825 0.000132713 -0.00122701 -0.00308779 1.35016
3 1 2.74111 -0.0114519 2.67837 -0.00102722 0.000392031 0.00117573 1.43107
4 1 2.681 2.68949 -0.0279353 0.00157378 -0.00079881 -0.000147045 1.3475
5 2 1.38626 1.26045 4.09097 0.00735663 0.00324198 -0.00242392 -0.727973
6 2 1.25705 4.14745 4.13344 0.00613579 -0.003569 0.0056684 -0.692645
7 2 1.14152 4.1813 1.34221 -0.00137228 0.00277782 0.00258803 -0.671826
8 2 1.42804 1.4133 1.45183 -0.00255704 -0.00516307 -0.00353946 -0.698125
9 2 4.07185 1.34966 1.21696 0.000599533 -0.00807516 0.00374564 -0.694367
10 2 4.09799 4.12518 1.40435 0.00757242 0.00175138 0.00386367 -0.677213
11 2 3.99629 4.03456 4.09055 -0.00284823 0.00168934 0.0013602 -0.686247
12 2 4.15038 1.27412 3.9744 0.00478876 0.00286625 0.00209244 -0.696025
13 1 0.00742579 -0.0291492 5.41405 0.00167644 0.00102719 -6.15221e-05 1.39847
14 1 -0.0283963 2.67888 8.28602 -0.00095346 0.000853944 -0.00113373 1.41804
15 1 2.75681 10.9194 8.23623 -0.0017319 -0.00158071 0.00111291 1.37946
16 1 2.60957 2.69641 5.4225 -0.00195142 0.000320194 -0.000234079 1.37286
17 2 1.27516 1.33164 9.49879 0.00144799 -0.00440703 -0.00137825 -0.716042
18 2 1.29617 4.15858 9.55778 0.00165976 0.00132393 0.000202306 -0.666259
19 2 1.18694 4.03914 6.81856 0.00761885 -0.00103765 0.00299075 -0.697054
20 2 1.27601 1.32553 6.84868 0.00513547 -0.0039518 -0.00654084 -0.674696
21 2 4.05034 1.39201 6.71713 -0.00776021 0.00282347 -0.0084043 -0.669
22 2 4.02805 3.96466 6.96331 0.00119806 -0.000682793 0.00818794 -0.693838
23 2 4.10971 4.14316 9.54125 0.00594385 -5.81679e-05 -0.0026492 -0.682125
24 2 4.06563 1.40749 9.60633 0.00232384 0.00946692 -0.00444161 -0.685639
25 1 10.8687 5.58186 0.0597366 -0.00096945 0.000436641 -0.00200022 1.40507
26 1 10.9334 8.24896 2.73046 5.10459e-05 0.00396409 0.00273443 1.38594
27 1 2.69955 5.46438 2.70823 0.000334077 -0.00136398 -0.00115777 1.37572
28 1 2.7879 8.27667 -0.029417 0.0015586 0.00183083 0.00325917 1.35522
29 2 1.30149 6.79833 4.11693 0.000149941 -0.00248234 -0.00036181 -0.655729
30 2 1.20871 9.61519 4.15787 -0.00173322 0.00578035 -0.00584255 -0.671924
31 2 1.42266 9.69354 1.45122 0.00567329 0.00623162 -0.00351783 -0.707288
32 2 1.24192 6.7912 1.38447 -0.00105824 -0.00290225 -0.000890699 -0.688452
33 2 4.10878 6.83675 1.29667 -0.00682435 -0.00752667 0.00421521 -0.699693
34 2 4.04068 9.5848 1.35655 -0.00052116 0.00476095 0.00520937 -0.69296
35 2 4.08441 9.62212 4.00509 -0.00013599 -0.00109497 0.00202186 -0.687716
36 2 4.02282 6.83318 4.11272 0.00193217 0.00391078 -0.000818325 -0.697345
37 1 10.951 5.45414 5.56481 0.00176491 -0.00018022 0.000514772 1.43647
38 1 10.95 8.16818 8.2396 -0.00195644 0.0017893 0.00154554 1.34759
39 1 2.73905 5.37254 8.23179 -0.00216987 -0.00115932 -0.0038632 1.40476
40 1 2.78856 8.22214 5.54472 -0.00223924 -0.000764838 0.00175837 1.35237
41 2 1.30123 6.77617 9.65402 -0.00183418 0.00109104 -0.00126561 -0.65846
42 2 1.47759 9.58344 9.59175 -0.00205882 0.00543554 0.0016305 -0.720963
43 2 1.41379 9.62558 6.90559 7.46802e-05 -0.000436734 -0.00307285 -0.680642
44 2 1.40438 6.77166 6.95123 -0.0041404 0.00950229 -0.0009065 -0.696223
45 2 4.09472 6.86554 6.93017 -0.00229983 -0.000205205 -0.00269291 -0.687562
46 2 4.11007 9.67584 6.77294 -0.00710314 -0.00444398 0.000774229 -0.72233
47 2 4.24799 9.6684 9.63844 -0.00375145 -0.00321846 0.00241846 -0.711528
48 2 4.08761 6.82638 9.57455 0.000331768 0.00153379 0.00333136 -0.676911
49 1 5.52132 0.0200184 -0.0103007 0.000463633 -0.00289753 -0.00126773 1.41166
50 1 5.48764 2.71443 2.71118 0.00241808 0.0012911 0.000407394 1.38034
51 1 8.29806 10.9556 2.70127 0.000733586 -0.00118418 -0.000613741 1.37374
52 1 8.2111 2.72418 10.9579 -0.00152959 -0.000803482 -0.00245285 1.40008
53 2 6.95656 1.35787 4.15 0.00169878 -0.00705571 0.00595893 -0.687882
54 2 6.80711 4.06335 4.07054 -0.00132734 0.00197877 0.010944 -0.70076
55 2 6.8342 4.06378 1.27626 -0.00095082 -0.00234993 0.0033671 -0.678257
56 2 6.85065 1.42205 1.36251 -0.00578619 -0.00412199 -0.00119384 -0.702133
57 2 9.7495 1.26738 1.23729 0.00091767 0.0076802 0.000359669 -0.683783
58 2 9.49047 4.0796 1.36698 -0.00248926 5.80572e-05 -0.00694862 -0.680884
59 2 9.53188 4.09907 4.17812 -0.00587726 0.00291918 0.00710774 -0.673316
60 2 9.54873 1.26871 4.16992 -0.000521232 0.000352902 -0.00338685 -0.713561
61 1 5.44922 -0.0283922 5.42946 6.2623e-07 -0.000540927 0.00118868 1.35844
62 1 5.47805 2.72438 8.20341 -0.000207184 0.000383664 -0.00024861 1.41787
63 1 8.25674 -0.0062001 8.17214 -0.00151922 -0.000582102 0.000932045 1.39046
64 1 8.24049 2.693 5.46509 0.000352504 0.000697663 -0.000214159 1.40592
65 2 6.89172 1.33689 9.63741 -0.000454217 -1.26281e-05 -0.0104516 -0.683806
66 2 6.71528 4.01488 9.63835 -0.00332205 -0.00187018 3.02973e-05 -0.700275
67 2 6.74429 4.11074 6.83224 0.00696264 0.000713666 0.00284071 -0.708383
68 2 6.88395 1.43354 6.96825 0.000180334 0.00568615 0.00159152 -0.694932
69 2 9.56407 1.31979 6.84482 0.00534257 0.00163399 0.00101289 -0.699234
70 2 9.59459 4.12857 6.77701 0.000840258 0.00193103 0.00309839 -0.678069
71 2 9.62958 4.05204 9.55813 0.000662394 0.00402485 -0.00373093 -0.676361
72 2 9.60582 1.40027 9.61454 0.00311863 0.000243067 0.00480401 -0.687684
73 1 5.53582 5.47167 10.9196 0.00224269 -0.000728559 0.000808913 1.41007
74 1 5.42246 8.15167 2.69366 0.00235312 0.00142023 0.00317818 1.3567
75 1 8.16168 5.49291 2.76787 -7.15972e-05 -0.00156402 0.00100552 1.37964
76 1 8.13578 8.30845 10.9003 0.000315835 0.000582084 -0.00281318 1.3844
77 2 6.84532 6.77799 4.0456 0.00344401 -0.0026585 0.00178987 -0.699303
78 2 6.93528 9.48664 3.96271 -0.00133652 0.000676815 -9.17093e-05 -0.680402
79 2 6.80196 9.69557 1.2546 0.00444053 0.00425513 -0.000285829 -0.694011
80 2 6.83858 6.77954 1.21054 -0.00137734 0.00147061 -0.00220394 -0.697909
81 2 9.58243 6.93831 1.31675 -0.00307793 0.00168518 0.000659797 -0.698362
82 2 9.5389 9.60401 1.27258 0.000638429 0.00527443 0.00281598 -0.694247
83 2 9.68838 9.5966 4.02047 -0.0033915 -0.00144815 0.00124928 -0.700886
84 2 9.5141 6.84606 4.11891 -0.00415396 -0.00157803 0.00264043 -0.663435
85 1 5.48627 5.41754 5.51017 -0.000769693 -0.000668656 -0.00199547 1.35447
86 1 5.47156 8.23691 8.22294 -0.000165523 -0.00026793 -0.000938167 1.37531
87 1 8.22008 5.50661 8.20574 -0.000786035 -0.000556045 0.000277507 1.36187
88 1 8.20626 8.25326 5.4701 -0.000933723 -0.00128208 -0.00196812 1.40203
89 2 6.86649 6.85698 9.57066 0.00102684 -0.00150331 0.00884203 -0.710198
90 2 6.89459 9.64502 9.58434 0.00101057 -0.00593614 -0.000259479 -0.705189
91 2 6.88422 9.66655 6.74709 -0.00145458 0.001598 0.00516205 -0.696541
92 2 6.68385 6.92835 6.8335 0.00355312 0.00408387 -0.00388239 -0.692872
93 2 9.54054 6.74164 6.65582 -0.000868989 -0.00120858 -0.00376289 -0.703653
94 2 9.52218 9.44422 6.84444 0.00365796 -0.00228448 0.00047954 -0.691783
95 2 9.65011 9.57348 9.50575 -0.00418236 -0.00541057 0.00112348 -0.708483
96 2 9.48881 6.74886 9.48433 0.00343579 -0.00258266 -0.000455458 -0.715416
ITEM: TIMESTEP
504000
ITEM: NUMBER OF ATOMS
96
ITEM: BOX BOUNDS pp pp pp
-3.2936432833181151e-02 1.0967836432833526e+01
-3.2936432833181151e-02 1.0967836432833526e+01
-3.2936432833181151e-02 1.0967836432833526e+01
ITEM: ATOMS id type x y z vx vy vz q
1 1 -0.0259238 10.9128 -0.00928741 0.000413899 -0.00129871 0.000203873 1.35609
2 1 10.9625 2.68668 2.77002 0.00136289 -0.000237422 -0.00330561 1.37744
3 1 2.63798 10.9259 2.64632 0.000310567 0.00149782 -0.000471869 1.38332
4 1 2.64691 2.69235 0.111251 0.00294661 -0.000927306 0.00211257 1.41368
5 2 1.33174 1.26736 4.07297 0.0111608 -0.00069419 -0.00338282 -0.694455
6 2 1.36311 4.06706 4.12981 0.0073682 -0.000978726 -0.000377226 -0.683492
7 2 1.37167 4.0702 1.35968 0.0023356 0.00343372 -0.000116204 -0.728165
8 2 1.33533 1.31388 1.41951 -0.00103768 -0.00421377 0.00246601 -0.718874