LAMMPS (11 Aug 2017)
# Initialize simulation
units           real
atom_style      charge

# Read the restart file from the NPT simulation
read_restart    restart.NPT
  orthogonal box = (-0.0363281 -0.0363281 -0.0363281) to (10.9712 10.9712 10.9712)
  1 by 1 by 1 MPI processor grid
  96 atoms

# Apply the ReaxFF potential
pair_style      reax 10.0 0 1 1.0e-6
WARNING: The pair_style reax command is unsupported. Please switch to pair_style reax/c instead (../pair_reax.cpp:49)
pair_coeff      * * ffield.reax 4 3

# Neighbor settings
neighbor        2 bin
neigh_modify    every 10 delay 0 check no

# Set up NVT ensemble
fix             1 all nvt temp 300.0 300.0 100.0   # Nose-Hoover thermostat for NVT

# Output settings
timestep        1.0
thermo          100
thermo_style    custom step temp press pe ke etotal

dump            2 all custom 1000 dump_nvt.lammpstrj id type x y z vx vy vz q

# Run the NVT simulation
run             10000
Unused restart file global fix info:
  fix style: npt, fix ID: 1
Neighbor list info ...
  update every 10 steps, delay 0 steps, check no
  max neighbors/atom: 2000, page size: 100000
  master list distance cutoff = 12
  ghost atom cutoff = 12
  binsize = 6, bins = 2 2 2
  1 neighbor lists, perpetual/occasional/extra = 1 0 0
  (1) pair reax, perpetual
      attributes: half, newton off
      pair build: half/bin/newtoff
      stencil: half/bin/3d/newtoff
      bin: standard
Per MPI rank memory allocation (min/avg/max) = 5.21 | 5.21 | 5.21 Mbytes
Step Temp Press PotEng KinEng TotEng 
   10000    328.34422   -6447.7301   -16434.981    92.979517   -16342.002 
   10100     308.8307   -6391.7663   -16429.726    87.453736   -16342.273 
   10200    315.11171   -6422.4091    -16423.01    89.232374   -16333.778 
   10300    289.88614   -4490.7203   -16402.616    82.089075   -16320.527 
   10400    290.25015   -4349.6814   -16404.881    82.192154   -16322.689 
   10500     283.6164   -5787.6993   -16421.476    80.313629   -16341.162 
   10600    325.98145   -6759.0277    -16437.04    92.310435    -16344.73 
   10700    280.77829   -7428.7159   -16422.118    79.509942   -16342.608 
   10800    296.56516   -5207.4858   -16418.729     83.98042   -16334.748 
   10900    369.58534   -5799.8051   -16425.091    104.65805   -16320.433 
   11000    357.70918   -6500.0667   -16420.192      101.295   -16318.897 
   11100    309.36956   -5874.9612   -16429.232     87.60633   -16341.626 
   11200    254.51604   -7359.2214   -16420.622    72.073076   -16348.549 
   11300    237.70515   -5207.4428   -16413.017     67.31262   -16345.704 
   11400    317.02493   -5553.6378   -16423.181    89.774155   -16333.407 
   11500    308.99251   -4643.2741   -16412.468    87.499559   -16324.969 
   11600    285.43474   -7066.6742   -16413.913     80.82854   -16333.084 
   11700    265.63214    -6325.004   -16427.656    75.220899   -16352.435 
   11800    267.72166   -7555.7895   -16426.711    75.812604   -16350.898 
   11900     323.3228   -6944.4097   -16430.501    91.557566   -16338.943 
   12000    298.57526   -6654.5013   -16414.971    84.549634   -16330.422 
   12100    319.72843   -5810.6322    -16422.44    90.539723     -16331.9 
   12200    273.05033   -6657.3295   -16419.518     77.32156   -16342.196 
   12300    283.60015   -6867.9812   -16442.449    80.309026    -16362.14 
   12400    253.72478   -7486.7026   -16436.329     71.84901    -16364.48 
   12500    286.96928   -7470.0097   -16434.139    81.263087   -16352.876 
   12600     305.5606   -7452.2302    -16426.55    86.527719   -16340.022 
   12700    335.62232    -5142.061   -16428.138    95.040505   -16333.097 
   12800    322.58935   -6609.6416   -16422.806     91.34987   -16331.456 
   12900    276.65153   -5647.1483   -16421.822    78.341337   -16343.481 
   13000    246.06759   -7313.9776   -16425.642     69.68067   -16355.962 
   13100    249.60729   -7323.5841   -16423.849    70.683033   -16353.166 
   13200    311.20333   -6373.8337   -16429.866     88.12561   -16341.741 
   13300     305.9299   -7602.3436   -16424.238    86.632298   -16337.605 
   13400    302.04403   -6319.9619   -16423.425    85.531908   -16337.893 
   13500    308.22798   -7449.7364   -16426.756    87.283061   -16339.473 
   13600    256.54018   -5984.0248   -16418.375    72.646267   -16345.729 
   13700    301.83439   -6642.2549    -16438.48    85.472543   -16353.008 
   13800     263.3067   -5700.1928   -16426.493     74.56239   -16351.931 
   13900    274.79448   -6208.7806   -16413.691    77.815464   -16335.876 
   14000    320.36693   -5414.6922   -16419.533    90.720533   -16328.813 
   14100    301.32163   -6835.4901    -16418.84    85.327342   -16333.513 
   14200    329.09471   -7324.4426   -16434.404    93.192039   -16341.212 
   14300    285.96626   -6159.3101   -16427.945    80.979054   -16346.966 
   14400    277.47767   -7381.9577   -16423.605    78.575281   -16345.029 
   14500    306.14019   -4783.7858   -16415.869    86.691846   -16329.177 
   14600    299.14343    -3941.681   -16409.106    84.710526   -16324.396 
   14700    295.08823   -5705.9905    -16417.79    83.562186   -16334.228 
   14800    276.63031    -7484.989   -16425.555    78.335327    -16347.22 
   14900    307.33578   -7215.8816   -16435.833    87.030411   -16348.803 
   15000    300.22805   -6276.8479    -16425.87    85.017665   -16340.852 
   15100    338.47414   -4817.2815   -16417.812    95.848077   -16321.964 
   15200    304.83784    -3946.089   -16410.378    86.323052   -16324.055 
   15300    316.40048    -5622.088   -16422.815    89.597324   -16333.218 
   15400    298.34841   -6574.7813    -16426.39    84.485395   -16341.904 
   15500    290.02106   -5881.3575   -16427.409    82.127281   -16345.282 
   15600    308.92937   -6187.9318   -16429.056    87.481677   -16341.574 
   15700    314.94023   -4583.0841   -16410.866    89.183817   -16321.682 
   15800    331.57864   -5097.8302   -16413.624    93.895428   -16319.729 
   15900    292.16667   -5619.5346   -16417.731    82.734869   -16334.996 
   16000    290.50358   -6192.5423   -16425.148     82.26392   -16342.884 
   16100    263.70109   -6749.1102   -16418.139     74.67407   -16343.465 
   16200    312.41021   -6647.8391   -16427.695    88.467371   -16339.227 
   16300    338.90274   -6156.3162   -16418.456    95.969447   -16322.487 
   16400    349.11389   -4950.9494   -16414.147    98.861008   -16315.286 
   16500    326.03357   -6060.3879   -16422.573    92.325195   -16330.248 
   16600    304.00394   -6122.3404   -16424.264     86.08691   -16338.177 
   16700    291.50273   -6107.6653   -16424.202    82.546855   -16341.655 
   16800    309.82019   -6258.7665   -16431.208    87.733939   -16343.474 
   16900    295.53833   -5718.5579   -16425.106    83.689646   -16341.416 
   17000    332.88515   -7021.3971    -16424.58    94.265402   -16330.314 
   17100    336.33747   -5633.5714     -16418.8    95.243021   -16323.557 
   17200    301.62088   -5217.0401   -16418.065    85.412083   -16332.653 
   17300    288.58359   -6061.0039   -16430.253    81.720221   -16348.533 
   17400     265.0313   -5698.5849   -16424.339    75.050755   -16349.289 
   17500    319.27678   -5963.6459   -16431.643    90.411826   -16341.231 
   17600    328.61571   -5326.2125   -16426.313    93.056397   -16333.256 
   17700    327.64948   -7281.0482    -16423.32    92.782782   -16330.537 
   17800     295.7586   -6169.7621   -16431.717     83.75202   -16347.965 
   17900    246.23121   -6398.6021   -16427.804    69.727003   -16358.077 
   18000    272.32865   -6118.1881   -16426.801    77.117197   -16349.683 
   18100    280.95693   -5460.0246   -16416.557    79.560529   -16336.997 
   18200    307.19088   -5937.3351   -16418.506    86.989377   -16331.517 
   18300    284.33197   -4748.9393   -16416.165    80.516261   -16335.649 
   18400    317.55584   -6857.8136   -16442.181    89.924496   -16352.256 
   18500    252.85958    -7171.257   -16432.082    71.604005   -16360.478 
   18600    280.86168   -6588.7912   -16431.704    79.533556    -16352.17 
   18700    293.47999   -6681.5048   -16425.095    83.106769   -16341.988 
   18800    317.96182    -5851.472   -16427.012     90.03946   -16336.972 
   18900    328.71425   -5382.7652   -16427.964    93.084301   -16334.879 
   19000    307.42499   -5038.4905   -16426.733    87.055674   -16339.678 
   19100    248.03344   -6978.4639   -16424.742    70.237355   -16354.505 
   19200    282.37538   -6422.2941   -16436.006    79.962201   -16356.044 
   19300    270.56239   -5587.6476   -16418.838    76.617033   -16342.221 
   19400    304.07967   -5812.5357   -16419.494    86.108355   -16333.386 
   19500    337.99404   -5274.3266   -16430.714    95.712123   -16335.002 
   19600    270.95837   -5543.0076   -16417.234    76.729165   -16340.505 
   19700    288.15119   -6221.9671   -16432.719    81.597776   -16351.121 
   19800    269.51554   -8106.9102    -16440.27    76.320591    -16363.95 
   19900    274.20972   -6470.2824   -16434.792    77.649873   -16357.142 
   20000    320.03911   -5494.7852   -16430.923      90.6277   -16340.295 
Loop time of 310.198 on 1 procs for 10000 steps with 96 atoms

Performance: 2.785 ns/day, 8.617 hours/ns, 32.237 timesteps/s
100.0% CPU use with 1 MPI tasks x no OpenMP threads

MPI task timing breakdown:
Section |  min time  |  avg time  |  max time  |%varavg| %total
---------------------------------------------------------------
Pair    | 308.95     | 308.95     | 308.95     |   0.0 | 99.60
Neigh   | 0.9212     | 0.9212     | 0.9212     |   0.0 |  0.30
Comm    | 0.18634    | 0.18634    | 0.18634    |   0.0 |  0.06
Output  | 0.023825   | 0.023825   | 0.023825   |   0.0 |  0.01
Modify  | 0.079577   | 0.079577   | 0.079577   |   0.0 |  0.03
Other   |            | 0.03421    |            |       |  0.01

Nlocal:    96 ave 96 max 96 min
Histogram: 1 0 0 0 0 0 0 0 0 0
Nghost:    2731 ave 2731 max 2731 min
Histogram: 1 0 0 0 0 0 0 0 0 0
Neighs:    46320 ave 46320 max 46320 min
Histogram: 1 0 0 0 0 0 0 0 0 0

Total # of neighbors = 46320
Ave neighs/atom = 482.5
Neighbor list builds = 1000
Dangerous builds not checked
Total wall time: 0:05:10
                                                                                                                                                                                                                                                                                                                                                                                                                                                                                                                                                                                                                                                                                                                                                                                                                                                                                                                                                                                                                                                                                                                                                                                                                                                                                                                                                                                                                                                                                                                                                                                                                                                                                                                                                                                                                                                                                                                                                                                                                                                                                                                                                                                                                                                                                                                                                                                                                                                                                                                                 write_restart restart.NPT
Total wall time: 0:05:17
