ITEM: TIMESTEP
0
ITEM: NUMBER OF ATOMS
19
ITEM: BOX BOUNDS ff ff ff
-5.0000000000000000e+00 5.0000000000000000e+00
-5.0000000000000000e+00 5.0000000000000000e+00
-5.0000000000000000e+00 5.0000000000000000e+00
ITEM: ATOMS id type xs ys zs
1 1 0.692272 0.0128409 0.816578
2 1 0.221511 0.943351 0.901064
3 1 0.183431 0.931815 0.0134565
4 1 0.162803 0.231303 0.511133
5 1 0.615963 0.488273 0.407365
6 1 0.584754 0.952561 0.700927
7 1 0.47878 0.857342 0.349656
8 1 0.665965 0.877708 0.630241
9 1 0.46551 0.830049 0.628568
10 1 0.337484 0.0986976 0.811362
11 1 0.552801 0.918068 0.962984
12 1 0.872813 0.37359 0.925332
13 1 0.0619517 0.222577 0.848206
14 1 0.791266 0.815336 0.357624
15 1 0.588519 0.230917 0.0224939
16 1 0.0557959 0.76138 0.507891
17 1 0.120163 0.584116 0.232784
18 1 0.392507 0.86897 0.771647
19 1 0.0645724 0.268452 0.866879
ITEM: TIMESTEP
1
ITEM: NUMBER OF ATOMS
19
ITEM: BOX BOUNDS ff ff ff
-5.0000000000000000e+00 5.0000000000000000e+00
-5.0000000000000000e+00 5.0000000000000000e+00
-5.0000000000000000e+00 5.0000000000000000e+00
ITEM: ATOMS id type xs ys zs
1 1 0.692272 0.0128409 0.816578
2 1 0.221511 0.943351 0.901064
3 1 0.183431 0.931815 0.0134565
4 1 0.162803 0.231303 0.511133
5 1 0.615963 0.488273 0.407365
6 1 0.584754 0.952561 0.700927
7 1 0.47878 0.857342 0.349656
8 1 0.665965 0.877708 0.630241
9 1 0.46551 0.830049 0.628568
10 1 0.337484 0.0986976 0.811362
11 1 0.552801 0.918068 0.962984
12 1 0.872813 0.37359 0.925332
13 1 0.0618089 0.220077 0.847188
14 1 0.791266 0.815336 0.357624
15 1 0.588519 0.230917 0.0224939
16 1 0.0557959 0.76138 0.507891
17 1 0.120163 0.584116 0.232784
18 1 0.392507 0.86897 0.771647
19 1 0.0647152 0.270952 0.867896
ITEM: TIMESTEP
2
ITEM: NUMBER OF ATOMS
19
ITEM: BOX BOUNDS ff ff ff
-5.0000000000000000e+00 5.0000000000000000e+00
-5.0000000000000000e+00 5.0000000000000000e+00
-5.0000000000000000e+00 5.0000000000000000e+00
ITEM: ATOMS id type xs ys zs
1 1 0.692272 0.0128409 0.816578
2 1 0.221511 0.943351 0.901064
3 1 0.183431 0.931815 0.0134565
4 1 0.162803 0.231303 0.511133
5 1 0.615963 0.488273 0.407365
6 1 0.584754 0.952561 0.700927
7 1 0.47878 0.857342 0.349656
8 1 0.665965 0.877708 0.630241
9 1 0.46551 0.830049 0.628568
10 1 0.337484 0.0986976 0.811362
11 1 0.552801 0.918068 0.962984
12 1 0.872813 0.37359 0.925332
13 1 0.0616661 0.217577 0.84617
14 1 0.791266 0.815336 0.357624
15 1 0.588519 0.230917 0.0224939
16 1 0.0557959 0.76138 0.507891
17 1 0.120163 0.584116 0.232784
18 1 0.392507 0.86897 0.771647
19 1 0.064858 0.273452 0.868914
ITEM: TIMESTEP
3
ITEM: NUMBER OF ATOMS
19
ITEM: BOX BOUNDS ff ff ff
-5.0000000000000000e+00 5.0000000000000000e+00
-5.0000000000000000e+00 5.0000000000000000e+00
-5.0000000000000000e+00 5.0000000000000000e+00
ITEM: ATOMS id type xs ys zs
1 1 0.692272 0.0128409 0.816578
2 1 0.221511 0.943351 0.901064
3 1 0.183431 0.931815 0.0134565
4 1 0.162803 0.231303 0.511133
5 1 0.615963 0.488273 0.407365
6 1 0.584754 0.952561 0.700927
7 1 0.47878 0.857342 0.349656
8 1 0.665965 0.877708 0.630241
9 1 0.46551 0.830049 0.628568
10 1 0.337484 0.0986976 0.811362
11 1 0.552801 0.918068 0.962984
12 1 0.872813 0.37359 0.925332
13 1 0.0615233 0.215077 0.845153
14 1 0.791266 0.815336 0.357624
15 1 0.588519 0.230917 0.0224939
16 1 0.0557959 0.76138 0.507891
17 1 0.120163 0.584116 0.232784
18 1 0.392507 0.86897 0.771647
19 1 0.0650009 0.275952 0.869931
ITEM: TIMESTEP
4
ITEM: NUMBER OF ATOMS
19
ITEM: BOX BOUNDS ff ff ff
-5.0000000000000000e+00 5.0000000000000000e+00
-5.0000000000000000e+00 5.0000000000000000e+00
-5.0000000000000000e+00 5.0000000000000000e+00
ITEM: ATOMS id type xs ys zs
1 1 0.692272 0.0128409 0.816578
2 1 0.221512 0.943351 0.901064
3 1 0.183431 0.931815 0.0134565
4 1 0.162803 0.231303 0.511133
5 1 0.615963 0.488273 0.407365
6 1 0.584754 0.952561 0.700926
7 1 0.47878 0.857342 0.349656
8 1 0.665964 0.877708 0.630242
9 1 0.46551 0.830049 0.628568
10 1 0.337484 0.0986977 0.811362
11 1 0.5528 0.918068 0.962984
12 1 0.872813 0.37359 0.925332
13 1 0.0612376 0.210077 0.843118
14 1 0.791266 0.815336 0.357624
15 1 0.588519 0.230917 0.0224939
16 1 0.0557959 0.76138 0.507891
17 1 0.120163 0.584116 0.232784
18 1 0.392507 0.86897 0.771646
19 1 0.0652865 0.280952 0.871967
ITEM: TIMESTEP
5
ITEM: NUMBER OF ATOMS
19
ITEM: BOX BOUNDS ff ff ff
-5.0000000000000000e+00 5.0000000000000000e+00
-5.0000000000000000e+00 5.0000000000000000e+00
-5.0000000000000000e+00 5.0000000000000000e+00
ITEM: ATOMS id type xs ys zs
1 1 0.692272 0.0128409 0.816578
2 1 0.221512 0.943351 0.901064
3 1 0.183431 0.931815 0.0134565
4 1 0.162803 0.231303 0.511133
5 1 0.615963 0.488273 0.407365
6 1 0.584758 0.952555 0.700921
7 1 0.47878 0.857342 0.349656
8 1 0.665958 0.877713 0.630247
9 1 0.46551 0.83005 0.628571
10 1 0.337484 0.0986977 0.811362
11 1 0.5528 0.918068 0.962984
12 1 0.872813 0.37359 0.925332
13 1 0.0609521 0.205077 0.841082
14 1 0.791266 0.815336 0.357624
15 1 0.588519 0.230917 0.022494
16 1 0.0557959 0.76138 0.507891
17 1 0.120163 0.584116 0.232784
18 1 0.392509 0.868969 0.771644
19 1 0.0655721 0.285952 0.874002
ITEM: TIMESTEP
6
ITEM: NUMBER OF ATOMS
19
ITEM: BOX BOUNDS ff ff ff
-5.0000000000000000e+00 5.0000000000000000e+00
-5.0000000000000000e+00 5.0000000000000000e+00
-5.0000000000000000e+00 5.0000000000000000e+00
ITEM: ATOMS id type xs ys zs
1 1 0.692272 0.0128409 0.816578
2 1 0.221513 0.94335 0.901063
3 1 0.183431 0.931815 0.0134565
4 1 0.162803 0.231303 0.511133
5 1 0.615963 0.488273 0.407365
6 1 0.584786 0.952517 0.70089
7 1 0.47878 0.857342 0.349657
8 1 0.66592 0.877744 0.630276
9 1 0.465512 0.83006 0.628587
10 1 0.337484 0.0986979 0.811362
11 1 0.5528 0.918068 0.962982
12 1 0.872813 0.37359 0.925332
13 1 0.0606667 0.200077 0.839047
14 1 0.791266 0.815336 0.357624
15 1 0.588519 0.230917 0.022494
16 1 0.055796 0.76138 0.507891
17 1 0.120163 0.584116 0.232784
18 1 0.392517 0.868967 0.771631
19 1 0.0658579 0.290951 0.876037
ITEM: TIMESTEP
7
ITEM: NUMBER OF ATOMS
19
ITEM: BOX BOUNDS ff ff ff
-5.0000000000000000e+00 5.0000000000000000e+00
-5.0000000000000000e+00 5.0000000000000000e+00
-5.0000000000000000e+00 5.0000000000000000e+00
ITEM: ATOMS id type xs ys zs
1 1 0.692271 0.0128414 0.816578
2 1 0.22153 0.943344 0.901051
3 1 0.183431 0.931815 0.0134568
4 1 0.162803 0.231303 0.511135
5 1 0.615963 0.488274 0.407365
6 1 0.585061 0.952138 0.700572
7 1 0.478783 0.857341 0.349663
8 1 0.665536 0.878053 0.630575
9 1 0.465526 0.830159 0.628756
10 1 0.337481 0.0986997 0.811362
11 1 0.552794 0.918066 0.962968
12 1 0.872813 0.37359 0.925332
13 1 0.060223 0.192251 0.835861
14 1 0.791262 0.815337 0.357627
15 1 0.588519 0.230917 0.0224941
16 1 0.0557968 0.761379 0.50789
17 1 0.120163 0.584117 0.232785
18 1 0.392603 0.868945 0.771498
19 1 0.066306 0.298775 0.879221
ITEM: TIMESTEP
8
ITEM: NUMBER OF ATOMS
19
ITEM: BOX BOUNDS ff ff ff
-5.0000000000000000e+00 5.0000000000000000e+00
-5.0000000000000000e+00 5.0000000000000000e+00
-5.0000000000000000e+00 5.0000000000000000e+00
ITEM: ATOMS id type xs ys zs
1 1 0.692264 0.0128469 0.816578
2 1 0.221737 0.943259 0.900905
3 1 0.183432 0.931811 0.0134611
4 1 0.162802 0.231302 0.511159
5 1 0.615962 0.488289 0.407365
6 1 0.588657 0.947222 0.696442
7 1 0.478812 0.857329 0.349741
8 1 0.660536 0.882074 0.63447
9 1 0.465703 0.831423 0.63092
10 1 0.337436 0.098722 0.811361
11 1 0.552719 0.918052 0.96278
12 1 0.872811 0.373587 0.925331
13 1 0.0602586 0.192108 0.83579
14 1 0.791217 0.815341 0.357659
15 1 0.588518 0.230918 0.0224959
16 1 0.0558078 0.761371 0.507879
17 1 0.120163 0.584128 0.232799
18 1 0.3937 0.868661 0.769786
19 1 0.0663263 0.298899 0.879266
ITEM: TIMESTEP
9
ITEM: NUMBER OF ATOMS
19
ITEM: BOX BOUNDS ff ff ff
-5.0000000000000000e+00 5.0000000000000000e+00
-5.0000000000000000e+00 5.0000000000000000e+00
-5.0000000000000000e+00 5.0000000000000000e+00
ITEM: ATOMS id type xs ys zs
1 1 0.69226 0.0128497 0.816579
2 1 0.221838 0.943218 0.900834
3 1 0.183433 0.931809 0.0134632
4 1 0.162801 0.231302 0.511171
5 1 0.615962 0.488296 0.407366
6 1 0.589423 0.945623 0.695197
7 1 0.478827 0.857324 0.34978
8 1 0.65895 0.88317 0.635575
9 1 0.465812 0.83216 0.632198
10 1 0.337414 0.0987333 0.811361
11 1 0.552682 0.918044 0.962688
12 1 0.87281 0.373586 0.92533
13 1 0.0603988 0.194182 0.836628
14 1 0.791195 0.815342 0.357674
15 1 0.588518 0.230919 0.0224968
16 1 0.0558133 0.761367 0.507873
17 1 0.120163 0.584134 0.232807
18 1 0.39435 0.868471 0.768754
19 1 0.0662146 0.296815 0.878415
ITEM: TIMESTEP
10
ITEM: NUMBER OF ATOMS
19
ITEM: BOX BOUNDS ff ff ff
-5.0000000000000000e+00 5.0000000000000000e+00
-5.0000000000000000e+00 5.0000000000000000e+00
-5.0000000000000000e+00 5.0000000000000000e+00
ITEM: ATOMS id type xs ys zs
1 1 0.692231 0.0128701 0.816581
2 1 0.22256 0.942926 0.900325
3 1 0.183436 0.931796 0.0134788
4 1 0.162796 0.2313 0.51126
5 1 0.61596 0.488348 0.407367
6 1 0.586179 0.941726 0.693558
7 1 0.478936 0.857284 0.35006
8 1 0.656019 0.883289 0.636162
9 1 0.466566 0.837736 0.641948
10 1 0.33725 0.0988162 0.81136
11 1 0.552414 0.91798 0.96202
12 1 0.872801 0.373577 0.925324
13 1 0.0606805 0.196282 0.837438
14 1 0.791033 0.815355 0.357779
15 1 0.588518 0.230924 0.0225035
16 1 0.0558535 0.761339 0.507832
17 1 0.120163 0.584176 0.23286
18 1 0.399328 0.866978 0.760821
19 1 0.0661397 0.294642 0.87751
ITEM: TIMESTEP
11
ITEM: NUMBER OF ATOMS
19
ITEM: BOX BOUNDS ff ff ff
-5.0000000000000000e+00 5.0000000000000000e+00
-5.0000000000000000e+00 5.0000000000000000e+00
-5.0000000000000000e+00 5.0000000000000000e+00
ITEM: ATOMS id type xs ys zs
1 1 0.692203 0.0128905 0.816583
2 1 0.223277 0.942636 0.89982
3 1 0.183439 0.931782 0.0134945
4 1 0.162791 0.231298 0.511349
5 1 0.615958 0.488401 0.407368
6 1 0.581978 0.938529 0.69264
7 1 0.479046 0.857244 0.350339
8 1 0.653968 0.882659 0.636019
9 1 0.467243 0.84341 0.651948
10 1 0.337087 0.0988991 0.811359
11 1 0.552146 0.917917 0.961353
12 1 0.872792 0.373568 0.925319
13 1 0.0608581 0.196514 0.837486
14 1 0.790872 0.815367 0.357883
15 1 0.588517 0.230928 0.0225101
16 1 0.0558937 0.761311 0.507792
17 1 0.120162 0.584218 0.232914
18 1 0.404462 0.865434 0.752648
19 1 0.0661687 0.294337 0.877366
ITEM: TIMESTEP
12
ITEM: NUMBER OF ATOMS
19
ITEM: BOX BOUNDS ff ff ff
-5.0000000000000000e+00 5.0000000000000000e+00
-5.0000000000000000e+00 5.0000000000000000e+00
-5.0000000000000000e+00 5.0000000000000000e+00
ITEM: ATOMS id type xs ys zs
1 1 0.692192 0.0128987 0.816583
2 1 0.223553 0.942525 0.899625
3 1 0.18344 0.931777 0.0135007
4 1 0.16279 0.231297 0.511384
5 1 0.615957 0.488422 0.407368
6 1 0.578166 0.938423 0.693637
7 1 0.47909 0.857229 0.350448
8 1 0.654914 0.880997 0.634553
9 1 0.467351 0.846031 0.656715
10 1 0.337021 0.0989323 0.811359
11 1 0.552041 0.917892 0.961087
12 1 0.872789 0.373565 0.925316
13 1 0.060722 0.192794 0.835951
14 1 0.790807 0.815372 0.357924
15 1 0.588516 0.23093 0.0225128
16 1 0.0559097 0.7613 0.507775
17 1 0.120162 0.584234 0.232935
18 1 0.407055 0.864697 0.748652
19 1 0.0663876 0.298028 0.878863
ITEM: TIMESTEP
13
ITEM: NUMBER OF ATOMS
19
ITEM: BOX BOUNDS ff ff ff
-5.0000000000000000e+00 5.0000000000000000e+00
-5.0000000000000000e+00 5.0000000000000000e+00
-5.0000000000000000e+00 5.0000000000000000e+00
ITEM: ATOMS id type xs ys zs
1 1 0.692166 0.012918 0.816585
2 1 0.224082 0.942319 0.899252
3 1 0.183443 0.931764 0.0135154
4 1 0.162785 0.231295 0.511469
5 1 0.615956 0.488471 0.407369
6 1 0.568166 0.932758 0.692865
7 1 0.479198 0.857199 0.350675
8 1 0.653685 0.87944 0.633684
9 1 0.475604 0.853249 0.661503
10 1 0.336864 0.0990116 0.811358
11 1 0.551814 0.917831 0.960452
12 1 0.872781 0.373556 0.925311
13 1 0.0608749 0.192772 0.8359
14 1 0.790654 0.815384 0.358022
15 1 0.588516 0.230935 0.022519
16 1 0.0559474 0.761273 0.507737
17 1 0.120162 0.584274 0.232986
18 1 0.409735 0.864917 0.746164
19 1 0.0664323 0.29798 0.878824
ITEM: TIMESTEP
14
ITEM: NUMBER OF ATOMS
19
ITEM: BOX BOUNDS ff ff ff
-5.0000000000000000e+00 5.0000000000000000e+00
-5.0000000000000000e+00 5.0000000000000000e+00
-5.0000000000000000e+00 5.0000000000000000e+00
ITEM: ATOMS id type xs ys zs
1 1 0.692152 0.0129275 0.816586
2 1 0.224338 0.942219 0.89907
3 1 0.183444 0.931758 0.0135227
4 1 0.162783 0.231294 0.51151
5 1 0.615955 0.488495 0.407369
6 1 0.563255 0.929171 0.691966
7 1 0.479251 0.857185 0.350786
8 1 0.652461 0.879027 0.633665
9 1 0.48117 0.857023 0.662716
10 1 0.336787 0.0990508 0.811358
11 1 0.551702 0.9178 0.960137
12 1 0.872777 0.373552 0.925308
13 1 0.0609655 0.193044 0.835989
14 1 0.790579 0.815389 0.35807
15 1 0.588515 0.230937 0.0225221
16 1 0.0559659 0.761259 0.507717
17 1 0.120162 0.584294 0.233011
18 1 0.410162 0.865246 0.746196
19 1 0.0664394 0.297673 0.87869
ITEM: TIMESTEP
15
ITEM: NUMBER OF ATOMS
19
ITEM: BOX BOUNDS ff ff ff
-5.0000000000000000e+00 5.0000000000000000e+00
-5.0000000000000000e+00 5.0000000000000000e+00
-5.0000000000000000e+00 5.0000000000000000e+00
ITEM: ATOMS id type xs ys zs
1 1 0.69215 0.0129295 0.816586
2 1 0.22438 0.942204 0.899042
3 1 0.183445 0.931756 0.0135243
4 1 0.162782 0.231294 0.511519
5 1 0.615955 0.4885 0.407369
6 1 0.564092 0.927668 0.6909
7 1 0.479263 0.857183 0.350807
8 1 0.650223 0.879915 0.634867
9 1 0.483344 0.857293 0.66128
10 1 0.33677 0.0990592 0.811358
11 1 0.551678 0.917793 0.960067
12 1 0.872776 0.373551 0.925308
13 1 0.0610083 0.19355 0.836192
14 1 0.790563 0.81539 0.35808
15 1 0.588515 0.230937 0.0225228
16 1 0.0559696 0.761257 0.507713
17 1 0.120162 0.584298 0.233016
18 1 0.409371 0.865608 0.747561
19 1 0.0664175 0.29716 0.878478
ITEM: TIMESTEP
16
ITEM: NUMBER OF ATOMS
19
ITEM: BOX BOUNDS ff ff ff
-5.0000000000000000e+00 5.0000000000000000e+00
-5.0000000000000000e+00 5.0000000000000000e+00
-5.0000000000000000e+00 5.0000000000000000e+00
ITEM: ATOMS id type xs ys zs
1 1 0.692146 0.0129321 0.816587
2 1 0.224436 0.942184 0.899003
3 1 0.183445 0.931755 0.0135263
4 1 0.162782 0.231294 0.511531
5 1 0.615955 0.488506 0.407369
6 1 0.564996 0.927353 0.690712
7 1 0.479279 0.85718 0.350834
8 1 0.648452 0.880344 0.635623
9 1 0.483247 0.856973 0.66135
10 1 0.336748 0.0990703 0.811357
11 1 0.551647 0.917782 0.959974
12 1 0.872775 0.37355 0.925307
13 1 0.0610292 0.193539 0.836181
14 1 0.790541 0.815392 0.358092
15 1 0.588515 0.230938 0.0225236
16 1 0.0559745 0.761253 0.507708
17 1 0.120162 0.584303 0.233023
18 1 0.410309 0.865836 0.74701
19 1 0.066424 0.297161 0.878476
ITEM: TIMESTEP
17
ITEM: NUMBER OF ATOMS
19
ITEM: BOX BOUNDS ff ff ff
-5.0000000000000000e+00 5.0000000000000000e+00
-5.0000000000000000e+00 5.0000000000000000e+00
-5.0000000000000000e+00 5.0000000000000000e+00
ITEM: ATOMS id type xs ys zs
1 1 0.692143 0.0129343 0.816587
2 1 0.224482 0.942168 0.898971
3 1 0.183445 0.931753 0.0135279
4 1 0.162781 0.231294 0.51154
5 1 0.615955 0.488512 0.407369
6 1 0.564835 0.927487 0.691068
7 1 0.479293 0.857177 0.350857
8 1 0.647791 0.880228 0.635708
9 1 0.483277 0.856788 0.661434
10 1 0.33673 0.0990793 0.811357
11 1 0.551621 0.917774 0.959898
12 1 0.872774 0.373549 0.925306
13 1 0.0610435 0.193475 0.83615
14 1 0.790524 0.815393 0.358103
15 1 0.588515 0.230939 0.0225243
16 1 0.0559785 0.76125 0.507703
17 1 0.120161 0.584308 0.233029
18 1 0.41108 0.866021 0.746558
19 1 0.0664323 0.297217 0.878497
ITEM: TIMESTEP
18
ITEM: NUMBER OF ATOMS
19
ITEM: BOX BOUNDS ff ff ff
-5.0000000000000000e+00 5.0000000000000000e+00
-5.0000000000000000e+00 5.0000000000000000e+00
-5.0000000000000000e+00 5.0000000000000000e+00
ITEM: ATOMS id type xs ys zs
1 1 0.692143 0.0129347 0.816587
2 1 0.224489 0.942165 0.898966
3 1 0.183445 0.931753 0.0135282
4 1 0.162781 0.231293 0.511542
5 1 0.615955 0.488513 0.407369
6 1 0.564637 0.927572 0.691217
7 1 0.479295 0.857177 0.35086
8 1 0.647822 0.880124 0.635626
9 1 0.48336 0.856772 0.661399
10 1 0.336727 0.0990808 0.811357
11 1 0.551617 0.917772 0.959886
12 1 0.872774 0.373549 0.925306
13 1 0.061046 0.193466 0.836146
14 1 0.790521 0.815393 0.358105
15 1 0.588515 0.230939 0.0225245
16 1 0.0559792 0.761249 0.507703
17 1 0.120161 0.584308 0.23303
18 1 0.411162 0.866059 0.746538
19 1 0.0664336 0.297225 0.878499
ITEM: TIMESTEP
19
ITEM: NUMBER OF ATOMS
19
ITEM: BOX BOUNDS ff ff ff
-5.0000000000000000e+00 5.0000000000000000e+00
-5.0000000000000000e+00 5.0000000000000000e+00
-5.0000000000000000e+00 5.0000000000000000e+00
ITEM: ATOMS id type xs ys zs
1 1 0.69214 0.0129366 0.816587
2 1 0.224528 0.942152 0.898939
3 1 0.183446 0.931752 0.0135296
4 1 0.162781 0.231293 0.51155
5 1 0.615955 0.488518 0.407369
6 1 0.563547 0.928039 0.692032
7 1 0.479307 0.857175 0.35088
8 1 0.648 0.879554 0.635171
9 1 0.483889 0.85668 0.661114
10 1 0.336711 0.0990888 0.811357
11 1 0.551595 0.917765 0.959818
12 1 0.872773 0.373548 0.925306
13 1 0.0610598 0.193434 0.836128
14 1 0.790506 0.815394 0.358113
15 1 0.588515 0.230939 0.0225251
16 1 0.0559827 0.761247 0.507699
17 1 0.120161 0.584312 0.233035
18 1 0.411528 0.86627 0.746527
19 1 0.0664396 0.297249 0.878508
ITEM: TIMESTEP
20
ITEM: NUMBER OF ATOMS
19
ITEM: BOX BOUNDS ff ff ff
-5.0000000000000000e+00 5.0000000000000000e+00
-5.0000000000000000e+00 5.0000000000000000e+00
-5.0000000000000000e+00 5.0000000000000000e+00
ITEM: ATOMS id type xs ys zs
1 1 0.692094 0.01297 0.81659
2 1 0.225222 0.94191 0.898462
3 1 0.18345 0.931729 0.0135552
4 1 0.162773 0.231289 0.511699
5 1 0.615953 0.488602 0.40737
6 1 0.560215 0.931587 0.699069
7 1 0.479513 0.857139 0.351232
8 1 0.638 0.876935 0.635894
9 1 0.488463 0.852368 0.656794
10 1 0.336432 0.0992298 0.811356
11 1 0.551194 0.917631 0.958618
12 1 0.872758 0.373533 0.925296
13 1 0.0613273 0.193315 0.836004
14 1 0.790239 0.81541 0.358271
15 1 0.588514 0.230947 0.022536
16 1 0.0560446 0.761199 0.507629
17 1 0.12016 0.584382 0.233124
18 1 0.419988 0.869924 0.744217
19 1 0.0665222 0.297245 0.878472
ITEM: TIMESTEP
21
ITEM: NUMBER OF ATOMS
19
ITEM: BOX BOUNDS ff ff ff
-5.0000000000000000e+00 5.0000000000000000e+00
-5.0000000000000000e+00 5.0000000000000000e+00
-5.0000000000000000e+00 5.0000000000000000e+00
ITEM: ATOMS id type xs ys zs
1 1 0.692055 0.0129986 0.816593
2 1 0.225809 0.941706 0.89806
3 1 0.183455 0.931711 0.013577
4 1 0.162766 0.231286 0.511825
5 1 0.615952 0.488674 0.40737
6 1 0.556536 0.932399 0.703744
7 1 0.47969 0.857108 0.351534
8 1 0.628 0.875206 0.637296
9 1 0.494215 0.850244 0.653864
10 1 0.336193 0.0993501 0.811356
11 1 0.550851 0.917518 0.957582
12 1 0.872746 0.373521 0.925288
13 1 0.0615606 0.193312 0.835939
14 1 0.790011 0.815423 0.358405
15 1 0.588513 0.230953 0.0225453
16 1 0.0560973 0.761158 0.507569
17 1 0.120159 0.584441 0.233199
18 1 0.427667 0.873195 0.74204
19 1 0.0665877 0.297142 0.878401
ITEM: TIMESTEP
22
ITEM: NUMBER OF ATOMS
19
ITEM: BOX BOUNDS ff ff ff
-5.0000000000000000e+00 5.0000000000000000e+00
-5.0000000000000000e+00 5.0000000000000000e+00
-5.0000000000000000e+00 5.0000000000000000e+00
ITEM: ATOMS id type xs ys zs
1 1 0.692029 0.013018 0.816595
2 1 0.226197 0.941575 0.897799
3 1 0.183457 0.931698 0.0135918
4 1 0.162761 0.231284 0.511911
5 1 0.615951 0.488723 0.407371
6 1 0.551538 0.929736 0.705619
7 1 0.479811 0.857087 0.351744
8 1 0.618 0.874021 0.639144
9 1 0.501913 0.851445 0.653221
10 1 0.336029 0.0994322 0.811355
11 1 0.550613 0.917442 0.95684
12 1 0.872738 0.373512 0.925283
13 1 0.061722 0.193349 0.835911
14 1 0.789856 0.815431 0.358494
15 1 0.588512 0.230958 0.0225516
16 1 0.0561329 0.761131 0.507529
17 1 0.120159 0.584481 0.233251
18 1 0.434813 0.875992 0.739642
19 1 0.0666305 0.297032 0.878337
ITEM: TIMESTEP
23
ITEM: NUMBER OF ATOMS
19
ITEM: BOX BOUNDS ff ff ff
-5.0000000000000000e+00 5.0000000000000000e+00
-5.0000000000000000e+00 5.0000000000000000e+00
-5.0000000000000000e+00 5.0000000000000000e+00
ITEM: ATOMS id type xs ys zs
1 1 0.692016 0.0130275 0.816596
2 1 0.226386 0.941512 0.897672
3 1 0.183459 0.931691 0.0135991
4 1 0.162759 0.231283 0.511954
5 1 0.615951 0.488748 0.407371
6 1 0.549062 0.929393 0.707475
7 1 0.479871 0.857076 0.351848
8 1 0.613095 0.873144 0.639805
9 1 0.505444 0.851234 0.652281
10 1 0.335949 0.0994727 0.811355
11 1 0.550496 0.917404 0.956471
12 1 0.872734 0.373508 0.92528
13 1 0.0618008 0.193354 0.835891
14 1 0.78978 0.815435 0.358537
15 1 0.588512 0.23096 0.0225547
16 1 0.0561504 0.761117 0.507509
17 1 0.120158 0.584501 0.233276
18 1 0.438588 0.877494 0.738403
19 1 0.0666522 0.296991 0.878311
ITEM: TIMESTEP
24
ITEM: NUMBER OF ATOMS
19
ITEM: BOX BOUNDS ff ff ff
-5.0000000000000000e+00 5.0000000000000000e+00
-5.0000000000000000e+00 5.0000000000000000e+00
-5.0000000000000000e+00 5.0000000000000000e+00
ITEM: ATOMS id type xs ys zs
1 1 0.692008 0.0130333 0.816597
2 1 0.226499 0.941475 0.897597
3 1 0.18346 0.931687 0.0136034
4 1 0.162758 0.231282 0.511979
5 1 0.61595 0.488762 0.407371
6 1 0.547589 0.930028 0.709398
7 1 0.479907 0.85707 0.351911
8 1 0.610589 0.872486 0.639963
9 1 0.506912 0.850302 0.651197
10 1 0.335901 0.099497 0.811355
11 1 0.550425 0.917381 0.956246
12 1 0.872731 0.373505 0.925279
13 1 0.0618476 0.193345 0.835875
14 1 0.789734 0.815437 0.358563
15 1 0.588512 0.230961 0.0225566
16 1 0.0561609 0.761109 0.507497
17 1 0.120158 0.584513 0.233291
18 1 0.441057 0.878492 0.737611
19 1 0.0666658 0.296978 0.8783
ITEM: TIMESTEP
25
ITEM: NUMBER OF ATOMS
19
ITEM: BOX BOUNDS ff ff ff
-5.0000000000000000e+00 5.0000000000000000e+00
-5.0000000000000000e+00 5.0000000000000000e+00
-5.0000000000000000e+00 5.0000000000000000e+00
ITEM: ATOMS id type xs ys zs
1 1 0.692005 0.0130358 0.816597
2 1 0.226544 0.941461 0.897568
3 1 0.18346 0.931686 0.0136053
4 1 0.162757 0.231282 0.51199
5 1 0.61595 0.488769 0.407371
6 1 0.546729 0.931929 0.711989
7 1 0.479923 0.857067 0.35194
8 1 0.61257 0.872434 0.639346
9 1 0.504031 0.847722 0.649828
10 1 0.335879 0.0995077 0.811354
11 1 0.550392 0.917371 0.956136
12 1 0.87273 0.373504 0.925278
13 1 0.0618664 0.193302 0.835852
14 1 0.789714 0.815438 0.358573
15 1 0.588512 0.230962 0.0225574
16 1 0.0561654 0.761105 0.507491
17 1 0.120158 0.584518 0.233298
18 1 0.442803 0.879239 0.737103
19 1 0.0666736 0.297012 0.878311
ITEM: TIMESTEP
26
ITEM: NUMBER OF ATOMS
19
ITEM: BOX BOUNDS ff ff ff
-5.0000000000000000e+00 5.0000000000000000e+00
-5.0000000000000000e+00 5.0000000000000000e+00
-5.0000000000000000e+00 5.0000000000000000e+00
ITEM: ATOMS id type xs ys zs
1 1 0.691998 0.0130408 0.816597
2 1 0.226622 0.941441 0.897522
3 1 0.183461 0.931682 0.0136092
4 1 0.162756 0.231281 0.512013
5 1 0.61595 0.488782 0.407372
6 1 0.543311 0.929101 0.712512
7 1 0.479957 0.85706 0.352003
8 1 0.612484 0.87377 0.640655
9 1 0.502993 0.846397 0.648452
10 1 0.335836 0.0995297 0.811354
11 1 0.550321 0.917353 0.955867
12 1 0.872728 0.373502 0.925276
13 1 0.0619034 0.193181 0.83579
14 1 0.789674 0.815438 0.358592
15 1 0.588512 0.230963 0.022559
16 1 0.0561743 0.761098 0.50748
17 1 0.120158 0.584529 0.233312
18 1 0.447335 0.882082 0.736875
19 1 0.066691 0.297114 0.878348
ITEM: TIMESTEP
27
ITEM: NUMBER OF ATOMS
19
ITEM: BOX BOUNDS ff ff ff
-5.0000000000000000e+00 5.0000000000000000e+00
-5.0000000000000000e+00 5.0000000000000000e+00
-5.0000000000000000e+00 5.0000000000000000e+00
ITEM: ATOMS id type xs ys zs
1 1 0.691996 0.0130419 0.816598
2 1 0.226638 0.941437 0.897514
3 1 0.183461 0.931682 0.01361
4 1 0.162755 0.231281 0.512018
5 1 0.61595 0.488785 0.407372
6 1 0.544811 0.929406 0.711917
7 1 0.479965 0.857059 0.352018
8 1 0.611686 0.873985 0.641124
9 1 0.503695 0.846166 0.64773
10 1 0.335826 0.0995346 0.811354
11 1 0.550304 0.917349 0.955799
12 1 0.872728 0.373502 0.925276
13 1 0.0619156 0.193235 0.83581
14 1 0.789666 0.815438 0.358595
15 1 0.588511 0.230963 0.0225594
16 1 0.0561762 0.761096 0.507478
17 1 0.120158 0.584531 0.233315
18 1 0.445932 0.881799 0.73778
19 1 0.0666912 0.297055 0.878323
ITEM: TIMESTEP
28
ITEM: NUMBER OF ATOMS
19
ITEM: BOX BOUNDS ff ff ff
-5.0000000000000000e+00 5.0000000000000000e+00
-5.0000000000000000e+00 5.0000000000000000e+00
-5.0000000000000000e+00 5.0000000000000000e+00
ITEM: ATOMS id type xs ys zs
1 1 0.691994 0.0130437 0.816598
2 1 0.226663 0.941432 0.8975
3 1 0.183461 0.931681 0.0136114
4 1 0.162755 0.231281 0.512026
5 1 0.61595 0.488789 0.407372
6 1 0.544364 0.929085 0.711905
7 1 0.479977 0.857056 0.352042
8 1 0.611861 0.874019 0.64115
9 1 0.503351 0.846433 0.648173
10 1 0.33581 0.0995423 0.811354
11 1 0.550277 0.917342 0.955695
12 1 0.872727 0.373501 0.925276
13 1 0.0619314 0.193254 0.835814
14 1 0.789652 0.815438 0.358601
15 1 0.588511 0.230964 0.02256
16 1 0.0561793 0.761094 0.507474
17 1 0.120158 0.584535 0.233319
18 1 0.446548 0.881827 0.737409
19 1 0.0666944 0.297029 0.87831
ITEM: TIMESTEP
29
ITEM: NUMBER OF ATOMS
19
ITEM: BOX BOUNDS ff ff ff
-5.0000000000000000e+00 5.0000000000000000e+00
-5.0000000000000000e+00 5.0000000000000000e+00
-5.0000000000000000e+00 5.0000000000000000e+00
ITEM: ATOMS id type xs ys zs
1 1 0.691993 0.0130443 0.816598
2 1 0.226671 0.94143 0.897496
3 1 0.183461 0.93168 0.0136118
4 1 0.162755 0.231281 0.512029
5 1 0.61595 0.488791 0.407372
6 1 0.544493 0.929162 0.711903
7 1 0.479981 0.857056 0.35205
8 1 0.611801 0.874023 0.641189
9 1 0.503407 0.846366 0.648038
10 1 0.335805 0.099545 0.811354
11 1 0.550268 0.91734 0.955659
12 1 0.872727 0.373501 0.925276
13 1 0.0619365 0.193252 0.835812
14 1 0.789647 0.815438 0.358603
15 1 0.588511 0.230964 0.0225602
16 1 0.0561803 0.761093 0.507472
17 1 0.120158 0.584536 0.233321
18 1 0.446422 0.881815 0.737537
19 1 0.066696 0.297029 0.87831
ITEM: TIMESTEP
30
ITEM: NUMBER OF ATOMS
19
ITEM: BOX BOUNDS ff ff ff
-5.0000000000000000e+00 5.0000000000000000e+00
-5.0000000000000000e+00 5.0000000000000000e+00
-5.0000000000000000e+00 5.0000000000000000e+00
ITEM: ATOMS id type xs ys zs
1 1 0.691993 0.0130445 0.816598
2 1 0.226675 0.941429 0.897494
3 1 0.183461 0.93168 0.013612
4 1 0.162755 0.231281 0.51203
5 1 0.61595 0.488792 0.407372
6 1 0.544511 0.929174 0.711904
7 1 0.479983 0.857055 0.352053
8 1 0.61179 0.874023 0.641198
9 1 0.503413 0.846358 0.648017
10 1 0.335803 0.0995461 0.811354
11 1 0.550264 0.917339 0.955644
12 1 0.872727 0.373501 0.925275
13 1 0.0619385 0.193251 0.835811
14 1 0.789645 0.815438 0.358604
15 1 0.588511 0.230964 0.0225603
16 1 0.0561808 0.761092 0.507472
17 1 0.120158 0.584536 0.233322
18 1 0.446409 0.881812 0.737559
19 1 0.0666966 0.297029 0.878309
ITEM: TIMESTEP
31
ITEM: NUMBER OF ATOMS
19
ITEM: BOX BOUNDS ff ff ff
-5.0000000000000000e+00 5.0000000000000000e+00
-5.0000000000000000e+00 5.0000000000000000e+00
-5.0000000000000000e+00 5.0000000000000000e+00
ITEM: ATOMS id type xs ys zs
1 1 0.691992 0.0130449 0.816598
2 1 0.22668 0.941428 0.897491
3 1 0.183461 0.93168 0.0136123
4 1 0.162755 0.231281 0.512032
5 1 0.61595 0.488793 0.407372
6 1 0.544532 0.929188 0.711906
7 1 0.479985 0.857055 0.352058
8 1 0.611777 0.874022 0.641211
9 1 0.503418 0.846351 0.647992
10 1 0.335799 0.0995477 0.811354
11 1 0.550259 0.917337 0.955622
12 1 0.872726 0.3735 0.925275
13 1 0.0619417 0.19325 0.835809
14 1 0.789642 0.815438 0.358605
15 1 0.588511 0.230964 0.0225604
16 1 0.0561814 0.761092 0.507471
17 1 0.120158 0.584537 0.233323
18 1 0.446397 0.881808 0.737588
19 1 0.0666975 0.297029 0.878309
ITEM: TIMESTEP
32
ITEM: NUMBER OF ATOMS
19
ITEM: BOX BOUNDS ff ff ff
-5.0000000000000000e+00 5.0000000000000000e+00
-5.0000000000000000e+00 5.0000000000000000e+00
-5.0000000000000000e+00 5.0000000000000000e+00
ITEM: ATOMS id type xs ys zs
1 1 0.691991 0.0130462 0.816598
2 1 0.226698 0.941424 0.897481
3 1 0.183461 0.931679 0.0136133
4 1 0.162754 0.231281 0.512037
5 1 0.615949 0.488796 0.407372
6 1 0.544574 0.929222 0.711914
7 1 0.479994 0.857053 0.352075
8 1 0.611746 0.874016 0.641251
9 1 0.50342 0.846344 0.647934
10 1 0.335788 0.0995534 0.811354
11 1 0.550239 0.917332 0.955545
12 1 0.872726 0.3735 0.925275
13 1 0.0619525 0.193246 0.835805
14 1 0.789632 0.815438 0.35861
15 1 0.588511 0.230964 0.0225608
16 1 0.0561836 0.76109 0.507468
17 1 0.120158 0.58454 0.233326
18 1 0.446384 0.881794 0.737663
19 1 0.0667007 0.297027 0.878307
ITEM: TIMESTEP
33
ITEM: NUMBER OF ATOMS
19
ITEM: BOX BOUNDS ff ff ff
-5.0000000000000000e+00 5.0000000000000000e+00
-5.0000000000000000e+00 5.0000000000000000e+00
-5.0000000000000000e+00 5.0000000000000000e+00
ITEM: ATOMS id type xs ys zs
1 1 0.691913 0.0131042 0.816604
2 1 0.227524 0.941241 0.897034
3 1 0.18347 0.93164 0.0136576
4 1 0.16274 0.231273 0.512301
5 1 0.615944 0.48895 0.407377
6 1 0.544262 0.92953 0.712342
7 1 0.480391 0.856973 0.352848
8 1 0.611435 0.873539 0.642512
9 1 0.502394 0.847415 0.647653
10 1 0.335276 0.0998089 0.811354
11 1 0.549346 0.917105 0.952064
12 1 0.872701 0.373474 0.925259
13 1 0.0624438 0.193127 0.835623
14 1 0.789179 0.815441 0.358805
15 1 0.588509 0.230978 0.0225797
16 1 0.0562844 0.761003 0.507339
17 1 0.120155 0.584662 0.233482
18 1 0.448054 0.88116 0.739151
19 1 0.0668431 0.296921 0.878205
ITEM: TIMESTEP
34
ITEM: NUMBER OF ATOMS
19
ITEM: BOX BOUNDS ff ff ff
-5.0000000000000000e+00 5.0000000000000000e+00
-5.0000000000000000e+00 5.0000000000000000e+00
-5.0000000000000000e+00 5.0000000000000000e+00
ITEM: ATOMS id type xs ys zs
1 1 0.691689 0.0132705 0.81662
2 1 0.22989 0.940717 0.895752
3 1 0.183493 0.93153 0.0137846
4 1 0.1627 0.231251 0.513055
5 1 0.61593 0.489393 0.407391
6 1 0.544192 0.930881 0.713334
7 1 0.481528 0.856742 0.355064
8 1 0.610396 0.872054 0.646075
9 1 0.499891 0.850494 0.646561
10 1 0.333806 0.100542 0.811352
11 1 0.546779 0.916452 0.942064
12 1 0.872629 0.373401 0.925212
13 1 0.0638539 0.192807 0.835113
14 1 0.787879 0.815449 0.359365
15 1 0.588503 0.231016 0.0226341
16 1 0.0565734 0.760756 0.506967
17 1 0.120149 0.585012 0.23393
18 1 0.451733 0.878987 0.744014
19 1 0.0672503 0.296593 0.877902
ITEM: TIMESTEP
35
ITEM: NUMBER OF ATOMS
19
ITEM: BOX BOUNDS ff ff ff
-5.0000000000000000e+00 5.0000000000000000e+00
-5.0000000000000000e+00 5.0000000000000000e+00
-5.0000000000000000e+00 5.0000000000000000e+00
ITEM: ATOMS id type xs ys zs
1 1 0.691468 0.013435 0.816637
2 1 0.232235 0.940197 0.894483
3 1 0.183516 0.93142 0.0139102
4 1 0.16266 0.231229 0.513802
5 1 0.615916 0.48983 0.407405
6 1 0.544838 0.933008 0.713853
7 1 0.482653 0.856514 0.357258
8 1 0.609306 0.869989 0.649132
9 1 0.498134 0.854339 0.646226
10 1 0.332349 0.101268 0.81135
11 1 0.544211 0.915795 0.932064
12 1 0.872558 0.373329 0.925165
13 1 0.0652528 0.192546 0.83463