ITEM: TIMESTEP
0
ITEM: NUMBER OF ATOMS
18
ITEM: BOX BOUNDS ff ff ff
-5.0000000000000000e+00 5.0000000000000000e+00
-5.0000000000000000e+00 5.0000000000000000e+00
-5.0000000000000000e+00 5.0000000000000000e+00
ITEM: ATOMS id type xs ys zs
1 1 0.533346 0.94129 0.258979
2 1 0.657177 0.181629 0.63367
3 1 0.0895957 0.835043 0.562089
4 1 0.0326119 0.107523 0.135968
5 1 0.2176 0.201802 0.691435
6 1 0.943361 0.0717572 0.0225908
7 1 0.683892 0.172834 0.816251
8 1 0.731157 0.554213 0.655438
9 1 0.942884 0.0594255 0.765064
10 1 0.423636 0.0551256 0.496511
11 1 0.855602 0.110872 0.434032
12 1 0.775149 0.925584 0.29471
13 1 0.199152 0.141424 0.918065
14 1 0.918648 0.711243 0.86944
15 1 0.672335 0.935552 0.818786
16 1 0.340455 0.0226454 0.601197
17 1 0.322369 0.0492495 0.737169
18 1 0.603808 0.20479 0.901217
ITEM: TIMESTEP
1
ITEM: NUMBER OF ATOMS
18
ITEM: BOX BOUNDS ff ff ff
-5.0000000000000000e+00 5.0000000000000000e+00
-5.0000000000000000e+00 5.0000000000000000e+00
-5.0000000000000000e+00 5.0000000000000000e+00
ITEM: ATOMS id type xs ys zs
1 1 0.533477 0.941281 0.258999
2 1 0.657297 0.18156 0.634604
3 1 0.0895965 0.835042 0.562089
4 1 0.0326127 0.107523 0.135969
5 1 0.218107 0.201016 0.691704
6 1 0.94336 0.0717575 0.022594
7 1 0.679285 0.174657 0.820104
8 1 0.731165 0.554213 0.655452
9 1 0.942825 0.0594522 0.765056
10 1 0.42037 0.0538805 0.500711
11 1 0.855574 0.110881 0.434073
12 1 0.775017 0.925592 0.294692
13 1 0.19926 0.141403 0.917761
14 1 0.918626 0.711243 0.869425
15 1 0.672346 0.935539 0.818786
16 1 0.342974 0.025011 0.602057
17 1 0.322572 0.0489672 0.732169
18 1 0.608316 0.202981 0.896367
ITEM: TIMESTEP
2
ITEM: NUMBER OF ATOMS
18
ITEM: BOX BOUNDS ff ff ff
-5.0000000000000000e+00 5.0000000000000000e+00
-5.0000000000000000e+00 5.0000000000000000e+00
-5.0000000000000000e+00 5.0000000000000000e+00
ITEM: ATOMS id type xs ys zs
1 1 0.533565 0.941275 0.259013
2 1 0.65737 0.181517 0.635218
3 1 0.089597 0.835042 0.562089
4 1 0.0326133 0.107523 0.13597
5 1 0.218452 0.200483 0.691882
6 1 0.94336 0.0717577 0.0225961
7 1 0.678355 0.175019 0.820399
8 1 0.73117 0.554213 0.655462
9 1 0.942786 0.0594696 0.76505
10 1 0.418073 0.0530172 0.503699
11 1 0.855554 0.110887 0.4341
12 1 0.774929 0.925597 0.29468
13 1 0.19933 0.141391 0.917559
14 1 0.918611 0.711243 0.869415
15 1 0.672353 0.935531 0.818786
16 1 0.344719 0.0266465 0.602633
17 1 0.322757 0.0487621 0.728644
18 1 0.609184 0.202628 0.895416
ITEM: TIMESTEP
3
ITEM: NUMBER OF ATOMS
18
ITEM: BOX BOUNDS ff ff ff
-5.0000000000000000e+00 5.0000000000000000e+00
-5.0000000000000000e+00 5.0000000000000000e+00
-5.0000000000000000e+00 5.0000000000000000e+00
ITEM: ATOMS id type xs ys zs
1 1 0.533804 0.941259 0.25905
2 1 0.657558 0.181404 0.636874
3 1 0.0895983 0.835042 0.562089
4 1 0.0326148 0.107523 0.135972
5 1 0.219405 0.199014 0.692358
6 1 0.943358 0.0717583 0.0226019
7 1 0.680794 0.174019 0.815861
8 1 0.731184 0.554214 0.655488
9 1 0.942681 0.0595163 0.765036
10 1 0.411616 0.050626 0.512198
11 1 0.855503 0.110903 0.434173
12 1 0.774689 0.925612 0.294647
13 1 0.199517 0.14136 0.917016
14 1 0.918572 0.711243 0.869388
15 1 0.672373 0.935508 0.818786
16 1 0.349537 0.031181 0.604244
17 1 0.323386 0.0481738 0.718644
18 1 0.606588 0.203647 0.898185
ITEM: TIMESTEP
4
ITEM: NUMBER OF ATOMS
18
ITEM: BOX BOUNDS ff ff ff
-5.0000000000000000e+00 5.0000000000000000e+00
-5.0000000000000000e+00 5.0000000000000000e+00
-5.0000000000000000e+00 5.0000000000000000e+00
ITEM: ATOMS id type xs ys zs
1 1 0.533912 0.941251 0.259066
2 1 0.65765 0.181351 0.637694
3 1 0.089599 0.835042 0.562088
4 1 0.0326155 0.107523 0.135973
5 1 0.219878 0.198296 0.692551
6 1 0.943358 0.0717586 0.0226045
7 1 0.680327 0.174192 0.815479
8 1 0.731191 0.554214 0.6555
9 1 0.942634 0.0595372 0.765029
10 1 0.410045 0.05008 0.514357
11 1 0.85548 0.11091 0.434206
12 1 0.774581 0.925618 0.294632
13 1 0.199591 0.141356 0.916782
14 1 0.918555 0.711243 0.869376
15 1 0.672382 0.935497 0.818786
16 1 0.350107 0.032631 0.606869
17 1 0.323898 0.0480179 0.71392
18 1 0.606977 0.203484 0.897698
ITEM: TIMESTEP
5
ITEM: NUMBER OF ATOMS
18
ITEM: BOX BOUNDS ff ff ff
-5.0000000000000000e+00 5.0000000000000000e+00
-5.0000000000000000e+00 5.0000000000000000e+00
-5.0000000000000000e+00 5.0000000000000000e+00
ITEM: ATOMS id type xs ys zs
1 1 0.534065 0.941241 0.25909
2 1 0.657787 0.181276 0.638961
3 1 0.0895998 0.835042 0.562088
4 1 0.0326165 0.107523 0.135975
5 1 0.220615 0.197196 0.692782
6 1 0.943357 0.071759 0.022608
7 1 0.678669 0.174835 0.815954
8 1 0.7312 0.554214 0.655517
9 1 0.942568 0.0595664 0.76502
10 1 0.409945 0.0500734 0.514538
11 1 0.855449 0.11092 0.434251
12 1 0.774427 0.925627 0.294611
13 1 0.19968 0.141362 0.916467
14 1 0.91853 0.711243 0.86936
15 1 0.672394 0.935483 0.818786
16 1 0.350031 0.032904 0.607186
17 1 0.323329 0.04888 0.713531
18 1 0.608516 0.202859 0.895888
ITEM: TIMESTEP
6
ITEM: NUMBER OF ATOMS
18
ITEM: BOX BOUNDS ff ff ff
-5.0000000000000000e+00 5.0000000000000000e+00
-5.0000000000000000e+00 5.0000000000000000e+00
-5.0000000000000000e+00 5.0000000000000000e+00
ITEM: ATOMS id type xs ys zs
1 1 0.534104 0.941238 0.259096
2 1 0.65782 0.181258 0.639301
3 1 0.0896 0.835042 0.562088
4 1 0.0326167 0.107523 0.135975
5 1 0.22082 0.196893 0.692839
6 1 0.943357 0.0717591 0.0226089
7 1 0.679492 0.174501 0.81465
8 1 0.731202 0.554214 0.655521
9 1 0.942552 0.0595735 0.765017
10 1 0.410071 0.050127 0.514383
11 1 0.855442 0.110922 0.434262
12 1 0.774388 0.92563 0.294606
13 1 0.199701 0.141364 0.916388
14 1 0.918524 0.711243 0.869355
15 1 0.672397 0.935479 0.818786
16 1 0.350029 0.0327955 0.606702
17 1 0.323 0.0492443 0.714199
18 1 0.607664 0.203197 0.896836
ITEM: TIMESTEP
7
ITEM: NUMBER OF ATOMS
18
ITEM: BOX BOUNDS ff ff ff
-5.0000000000000000e+00 5.0000000000000000e+00
-5.0000000000000000e+00 5.0000000000000000e+00
-5.0000000000000000e+00 5.0000000000000000e+00
ITEM: ATOMS id type xs ys zs
1 1 0.534299 0.941225 0.259126
2 1 0.658004 0.181161 0.641093
3 1 0.0896011 0.835041 0.562088
4 1 0.0326179 0.107523 0.135976
5 1 0.221872 0.195334 0.693134
6 1 0.943356 0.0717595 0.0226134
7 1 0.679089 0.174635 0.813167
8 1 0.731213 0.554214 0.655542
9 1 0.94247 0.0596099 0.765004
10 1 0.410939 0.0504662 0.513237
11 1 0.855405 0.110933 0.434318
12 1 0.774193 0.925642 0.294578
13 1 0.199811 0.141376 0.915985
14 1 0.918493 0.711242 0.869334
15 1 0.672412 0.935461 0.818786
16 1 0.349045 0.0326217 0.607559
17 1 0.322056 0.0506702 0.714626
18 1 0.607903 0.203089 0.896444
ITEM: TIMESTEP
8
ITEM: NUMBER OF ATOMS
18
ITEM: BOX BOUNDS ff ff ff
-5.0000000000000000e+00 5.0000000000000000e+00
-5.0000000000000000e+00 5.0000000000000000e+00
-5.0000000000000000e+00 5.0000000000000000e+00
ITEM: ATOMS id type xs ys zs
1 1 0.535358 0.941153 0.259289
2 1 0.659038 0.180628 0.651093
3 1 0.0896069 0.83504 0.562087
4 1 0.0326242 0.107522 0.135985
5 1 0.227727 0.186658 0.694769
6 1 0.94335 0.0717621 0.0226377
7 1 0.675571 0.17589 0.806379
8 1 0.731274 0.554215 0.655655
9 1 0.942027 0.0598071 0.764935
10 1 0.411824 0.0512014 0.512851
11 1 0.855205 0.110995 0.434619
12 1 0.773131 0.925705 0.294432
13 1 0.200414 0.141435 0.913789
14 1 0.918325 0.711241 0.86922
15 1 0.672496 0.935363 0.818786
16 1 0.347529 0.03279 0.606367
17 1 0.316779 0.0586168 0.716933
18 1 0.610499 0.20198 0.892785
ITEM: TIMESTEP
9
ITEM: NUMBER OF ATOMS
18
ITEM: BOX BOUNDS ff ff ff
-5.0000000000000000e+00 5.0000000000000000e+00
-5.0000000000000000e+00 5.0000000000000000e+00
-5.0000000000000000e+00 5.0000000000000000e+00
ITEM: ATOMS id type xs ys zs
1 1 0.53634 0.941086 0.259441
2 1 0.660057 0.180121 0.661093
3 1 0.0896123 0.835038 0.562086
4 1 0.0326301 0.107522 0.135994
5 1 0.233591 0.177989 0.696391
6 1 0.943344 0.0717644 0.0226601
7 1 0.672986 0.176773 0.798421
8 1 0.73133 0.554216 0.655759
9 1 0.941618 0.0599891 0.764871
10 1 0.411471 0.0515471 0.514193
11 1 0.855023 0.111051 0.434895
12 1 0.772146 0.925764 0.294295
13 1 0.200984 0.141484 0.911726
14 1 0.918171 0.71124 0.869115
15 1 0.672573 0.935273 0.818786
16 1 0.346428 0.0340157 0.60666
17 1 0.312307 0.0658789 0.715894
18 1 0.612168 0.201249 0.890331
ITEM: TIMESTEP
10
ITEM: NUMBER OF ATOMS
18
ITEM: BOX BOUNDS ff ff ff
-5.0000000000000000e+00 5.0000000000000000e+00
-5.0000000000000000e+00 5.0000000000000000e+00
-5.0000000000000000e+00 5.0000000000000000e+00
ITEM: ATOMS id type xs ys zs
1 1 0.537079 0.941036 0.259555
2 1 0.661015 0.179705 0.671093
3 1 0.0896162 0.835037 0.562085
4 1 0.0326344 0.107522 0.136
5 1 0.239492 0.16936 0.69794
6 1 0.94334 0.0717661 0.0226767
7 1 0.67064 0.177565 0.790378
8 1 0.731371 0.554216 0.655837
9 1 0.941313 0.0601244 0.764821
10 1 0.410071 0.051507 0.516791
11 1 0.854892 0.11109 0.435097
12 1 0.771405 0.925809 0.294192
13 1 0.201437 0.141509 0.91012
14 1 0.918056 0.711239 0.869037
15 1 0.672631 0.935205 0.818786
16 1 0.34551 0.0363934 0.609077
17 1 0.308646 0.0723014 0.711053
18 1 0.61363 0.200615 0.888074
ITEM: TIMESTEP
11
ITEM: NUMBER OF ATOMS
18
ITEM: BOX BOUNDS ff ff ff
-5.0000000000000000e+00 5.0000000000000000e+00
-5.0000000000000000e+00 5.0000000000000000e+00
-5.0000000000000000e+00 5.0000000000000000e+00
ITEM: ATOMS id type xs ys zs
1 1 0.537265 0.941024 0.259583
2 1 0.661387 0.179589 0.675916
3 1 0.0896172 0.835037 0.562085
4 1 0.0326354 0.107522 0.136001
5 1 0.242449 0.165153 0.698485
6 1 0.943339 0.0717666 0.0226806
7 1 0.669028 0.178143 0.787699
8 1 0.731381 0.554216 0.655856
9 1 0.94124 0.0601568 0.764807
10 1 0.409196 0.0513915 0.518173
11 1 0.854866 0.111098 0.435141
12 1 0.771219 0.92582 0.294167
13 1 0.201572 0.141506 0.909665
14 1 0.918029 0.711239 0.869019
15 1 0.672644 0.93519 0.818786
16 1 0.345328 0.0375777 0.610007
17 1 0.306698 0.0754779 0.708678
18 1 0.614886 0.200096 0.885863
ITEM: TIMESTEP
12
ITEM: NUMBER OF ATOMS
18
ITEM: BOX BOUNDS ff ff ff
-5.0000000000000000e+00 5.0000000000000000e+00
-5.0000000000000000e+00 5.0000000000000000e+00
-5.0000000000000000e+00 5.0000000000000000e+00
ITEM: ATOMS id type xs ys zs
1 1 0.537381 0.941016 0.259601
2 1 0.661437 0.179567 0.677063
3 1 0.0896177 0.835037 0.562084
4 1 0.032636 0.107522 0.136002
5 1 0.242657 0.164842 0.69844
6 1 0.943339 0.0717668 0.0226829
7 1 0.668085 0.178506 0.788225
8 1 0.731387 0.554216 0.655867
9 1 0.941196 0.0601762 0.764798
10 1 0.408731 0.0513549 0.51891
11 1 0.854853 0.111102 0.435165
12 1 0.771102 0.925827 0.29415
13 1 0.201668 0.141498 0.909355
14 1 0.918013 0.711239 0.869008
15 1 0.672652 0.93518 0.818786
16 1 0.345194 0.0382346 0.610334
17 1 0.307043 0.0751953 0.707986
18 1 0.615787 0.199724 0.884154
ITEM: TIMESTEP
13
ITEM: NUMBER OF ATOMS
18
ITEM: BOX BOUNDS ff ff ff
-5.0000000000000000e+00 5.0000000000000000e+00
-5.0000000000000000e+00 5.0000000000000000e+00
-5.0000000000000000e+00 5.0000000000000000e+00
ITEM: ATOMS id type xs ys zs
1 1 0.537533 0.941005 0.259624
2 1 0.661366 0.179571 0.67691
3 1 0.0896184 0.835037 0.562084
4 1 0.0326368 0.107522 0.136003
5 1 0.242111 0.165596 0.698187
6 1 0.943338 0.0717671 0.0226857
7 1 0.668138 0.178483 0.78854
8 1 0.731394 0.554215 0.655882
9 1 0.94114 0.060201 0.764786
10 1 0.408478 0.0513942 0.519358
11 1 0.854839 0.111106 0.435195
12 1 0.77095 0.925837 0.294129
13 1 0.201797 0.141485 0.908939
14 1 0.917992 0.711239 0.868994
15 1 0.672662 0.935168 0.818786
16 1 0.345166 0.0385222 0.609859
17 1 0.307805 0.0741518 0.708704
18 1 0.615815 0.199703 0.883947
ITEM: TIMESTEP
14
ITEM: NUMBER OF ATOMS
18
ITEM: BOX BOUNDS ff ff ff
-5.0000000000000000e+00 5.0000000000000000e+00
-5.0000000000000000e+00 5.0000000000000000e+00
-5.0000000000000000e+00 5.0000000000000000e+00
ITEM: ATOMS id type xs ys zs
1 1 0.537861 0.940983 0.259675
2 1 0.661188 0.179589 0.676448
3 1 0.0896199 0.835037 0.562084
4 1 0.0326384 0.107522 0.136005
5 1 0.242008 0.165727 0.697785
6 1 0.943336 0.0717677 0.0226919
7 1 0.668992 0.178137 0.788081
8 1 0.73141 0.554214 0.655913
9 1 0.94102 0.0602542 0.76476
10 1 0.408648 0.0516301 0.519304
11 1 0.854808 0.111114 0.435258
12 1 0.770621 0.925857 0.294083
13 1 0.20208 0.141455 0.908032
14 1 0.917948 0.711238 0.868964
15 1 0.672684 0.935142 0.818786
16 1 0.344449 0.0389369 0.609639
17 1 0.308308 0.0734491 0.710332
18 1 0.615159 0.199948 0.884772
ITEM: TIMESTEP
15
ITEM: NUMBER OF ATOMS
18
ITEM: BOX BOUNDS ff ff ff
-5.0000000000000000e+00 5.0000000000000000e+00
-5.0000000000000000e+00 5.0000000000000000e+00
-5.0000000000000000e+00 5.0000000000000000e+00
ITEM: ATOMS id type xs ys zs
1 1 0.538221 0.940959 0.25973
2 1 0.660981 0.179614 0.675924
3 1 0.0896215 0.835036 0.562084
4 1 0.0326402 0.107521 0.136008
5 1 0.243167 0.164105 0.697558
6 1 0.943335 0.0717684 0.0226986
7 1 0.669465 0.177946 0.78847
8 1 0.731427 0.554213 0.655946
9 1 0.940888 0.0603122 0.764731
10 1 0.409105 0.0519409 0.518866
11 1 0.854775 0.111123 0.435325
12 1 0.77026 0.925879 0.294032
13 1 0.202394 0.141421 0.907034
14 1 0.9179 0.711238 0.868931
15 1 0.672708 0.935114 0.818786
16 1 0.343132 0.0395931 0.610445
17 1 0.307844 0.0741938 0.711241
18 1 0.614914 0.200024 0.884802
ITEM: TIMESTEP
16
ITEM: NUMBER OF ATOMS
18
ITEM: BOX BOUNDS ff ff ff
-5.0000000000000000e+00 5.0000000000000000e+00
-5.0000000000000000e+00 5.0000000000000000e+00
-5.0000000000000000e+00 5.0000000000000000e+00
ITEM: ATOMS id type xs ys zs
1 1 0.538466 0.940942 0.259767
2 1 0.660886 0.179624 0.676234
3 1 0.0896226 0.835036 0.562083
4 1 0.0326414 0.107521 0.136009
5 1 0.24366 0.163415 0.6973
6 1 0.943334 0.0717689 0.0227031
7 1 0.669454 0.177941 0.78859
8 1 0.731438 0.554213 0.655969
9 1 0.9408 0.0603511 0.764712
10 1 0.408769 0.052027 0.519466
11 1 0.854753 0.111129 0.435371
12 1 0.770015 0.925894 0.293998
13 1 0.20261 0.141395 0.90635
14 1 0.917868 0.711237 0.86891
15 1 0.672724 0.935096 0.818786
16 1 0.342755 0.0402985 0.610379
17 1 0.307946 0.0741549 0.711681
18 1 0.615036 0.19996 0.884303
ITEM: TIMESTEP
17
ITEM: NUMBER OF ATOMS
18
ITEM: BOX BOUNDS ff ff ff
-5.0000000000000000e+00 5.0000000000000000e+00
-5.0000000000000000e+00 5.0000000000000000e+00
-5.0000000000000000e+00 5.0000000000000000e+00
ITEM: ATOMS id type xs ys zs
1 1 0.538601 0.940933 0.259788
2 1 0.660853 0.179626 0.676723
3 1 0.0896231 0.835036 0.562083
4 1 0.032642 0.107521 0.13601
5 1 0.24345 0.163707 0.69701
6 1 0.943333 0.0717692 0.0227055
7 1 0.669425 0.177942 0.788352
8 1 0.731444 0.554212 0.655981
9 1 0.940753 0.0603722 0.764702
10 1 0.408356 0.0520319 0.520113
11 1 0.854742 0.111132 0.435395
12 1 0.76988 0.925902 0.293979
13 1 0.202733 0.141377 0.905967
14 1 0.917851 0.711237 0.868898
15 1 0.672733 0.935086 0.818786
16 1 0.342667 0.040845 0.610269
17 1 0.308588 0.073348 0.711836
18 1 0.615105 0.199923 0.884016
ITEM: TIMESTEP
18
ITEM: NUMBER OF ATOMS
18
ITEM: BOX BOUNDS ff ff ff
-5.0000000000000000e+00 5.0000000000000000e+00
-5.0000000000000000e+00 5.0000000000000000e+00
-5.0000000000000000e+00 5.0000000000000000e+00
ITEM: ATOMS id type xs ys zs
1 1 0.539447 0.940876 0.259917
2 1 0.660456 0.179687 0.67753
3 1 0.0896267 0.835035 0.562083
4 1 0.0326459 0.107521 0.136016
5 1 0.244892 0.161739 0.695671
6 1 0.94333 0.0717707 0.0227203
7 1 0.669648 0.177826 0.78878
8 1 0.731482 0.55421 0.656056
9 1 0.940457 0.0605026 0.764638
10 1 0.407213 0.0523105 0.522181
11 1 0.854671 0.111151 0.435544
12 1 0.769032 0.925954 0.29386
13 1 0.203513 0.141259 0.90356
14 1 0.917744 0.711236 0.868825
15 1 0.672786 0.935023 0.818785
16 1 0.340848 0.0438698 0.610734
17 1 0.309658 0.0722525 0.713161
18 1 0.615328 0.199778 0.882551
ITEM: TIMESTEP
19
ITEM: NUMBER OF ATOMS
18
ITEM: BOX BOUNDS ff ff ff
-5.0000000000000000e+00 5.0000000000000000e+00
-5.0000000000000000e+00 5.0000000000000000e+00
-5.0000000000000000e+00 5.0000000000000000e+00
ITEM: ATOMS id type xs ys zs
1 1 0.542435 0.940675 0.260374
2 1 0.658971 0.179922 0.679445
3 1 0.0896392 0.835032 0.56208
4 1 0.0326596 0.10752 0.136035
5 1 0.249992 0.154807 0.690748
6 1 0.943317 0.0717761 0.0227723
7 1 0.672172 0.176729 0.788385
8 1 0.731616 0.554203 0.656321
9 1 0.939417 0.0609615 0.764413
10 1 0.404733 0.0534966 0.527404
11 1 0.854423 0.111219 0.436068
12 1 0.766039 0.926137 0.293439
13 1 0.206274 0.140832 0.895061
14 1 0.917369 0.711233 0.86857
15 1 0.672973 0.934804 0.818785
16 1 0.333434 0.0538698 0.612213
17 1 0.312855 0.0688485 0.720273
18 1 0.614459 0.199937 0.880224
ITEM: TIMESTEP
20
ITEM: NUMBER OF ATOMS
18
ITEM: BOX BOUNDS ff ff ff
-5.0000000000000000e+00 5.0000000000000000e+00
-5.0000000000000000e+00 5.0000000000000000e+00
-5.0000000000000000e+00 5.0000000000000000e+00
ITEM: ATOMS id type xs ys zs
1 1 0.545282 0.940484 0.260809
2 1 0.657265 0.180219 0.678929
3 1 0.089651 0.83503 0.562077
4 1 0.0326726 0.10752 0.136054
5 1 0.254543 0.148717 0.685187
6 1 0.943305 0.0717813 0.0228214
7 1 0.675418 0.175392 0.789488
8 1 0.731743 0.554196 0.656571
9 1 0.938432 0.0613962 0.7642
10 1 0.403214 0.0546215 0.531374
11 1 0.85419 0.111282 0.436563
12 1 0.763185 0.926312 0.293038
13 1 0.208924 0.140402 0.886957
14 1 0.917015 0.711229 0.868329
15 1 0.67315 0.934597 0.818785
16 1 0.325191 0.0638698 0.614273
17 1 0.316519 0.0646445 0.728281
18 1 0.613079 0.20031 0.878876
ITEM: TIMESTEP
21
ITEM: NUMBER OF ATOMS
18
ITEM: BOX BOUNDS ff ff ff
-5.0000000000000000e+00 5.0000000000000000e+00
-5.0000000000000000e+00 5.0000000000000000e+00
-5.0000000000000000e+00 5.0000000000000000e+00
ITEM: ATOMS id type xs ys zs
1 1 0.546194 0.940422 0.260949
2 1 0.656723 0.180314 0.678795
3 1 0.0896547 0.835029 0.562077
4 1 0.0326767 0.10752 0.136059
5 1 0.256409 0.146266 0.683163
6 1 0.943301 0.0717829 0.022837
7 1 0.676479 0.174955 0.789776
8 1 0.731783 0.554194 0.65665
9 1 0.93812 0.0615342 0.764133
10 1 0.40251 0.0550057 0.532873
11 1 0.854116 0.111302 0.436719
12 1 0.762272 0.926368 0.29291
13 1 0.209782 0.140252 0.884361
14 1 0.916902 0.711228 0.868253
15 1 0.673206 0.934532 0.818785
16 1 0.322441 0.0674042 0.615396
17 1 0.317598 0.0634535 0.730396
18 1 0.612611 0.200439 0.87848
ITEM: TIMESTEP
22
ITEM: NUMBER OF ATOMS
18
ITEM: BOX BOUNDS ff ff ff
-5.0000000000000000e+00 5.0000000000000000e+00
-5.0000000000000000e+00 5.0000000000000000e+00
-5.0000000000000000e+00 5.0000000000000000e+00
ITEM: ATOMS id type xs ys zs
1 1 0.546836 0.940379 0.261047
2 1 0.656422 0.180364 0.679178
3 1 0.0896572 0.835028 0.562076
4 1 0.0326794 0.107519 0.136063
5 1 0.259115 0.142843 0.680957
6 1 0.943299 0.071784 0.0228473
7 1 0.677069 0.174702 0.789616
8 1 0.731809 0.554192 0.656703
9 1 0.937909 0.0616273 0.764089
10 1 0.401019 0.0554259 0.534943
11 1 0.854067 0.111315 0.436824
12 1 0.761629 0.926407 0.292819
13 1 0.210422 0.140102 0.88253
14 1 0.916827 0.711228 0.868202
15 1 0.673243 0.934488 0.818785
16 1 0.320449 0.0708568 0.617654
17 1 0.317971 0.0632392 0.730184
18 1 0.612357 0.200501 0.878096
ITEM: TIMESTEP
23
ITEM: NUMBER OF ATOMS
18
ITEM: BOX BOUNDS ff ff ff
-5.0000000000000000e+00 5.0000000000000000e+00
-5.0000000000000000e+00 5.0000000000000000e+00
-5.0000000000000000e+00 5.0000000000000000e+00
ITEM: ATOMS id type xs ys zs
1 1 0.547003 0.940368 0.261072
2 1 0.656367 0.180372 0.679416
3 1 0.0896577 0.835028 0.562076
4 1 0.03268 0.107519 0.136064
5 1 0.259449 0.142477 0.680065
6 1 0.943298 0.0717842 0.0228496
7 1 0.67708 0.174691 0.789602
8 1 0.731815 0.554192 0.656715
9 1 0.937859 0.061649 0.764079
10 1 0.399997 0.0556591 0.536125
11 1 0.854056 0.111318 0.436847
12 1 0.761462 0.926418 0.292795
13 1 0.210608 0.140036 0.88206
14 1 0.91681 0.711228 0.86819
15 1 0.673252 0.934478 0.818785
16 1 0.320584 0.07157 0.61775
17 1 0.318392 0.0627448 0.730286
18 1 0.612409 0.20047 0.877835
ITEM: TIMESTEP
24
ITEM: NUMBER OF ATOMS
18
ITEM: BOX BOUNDS ff ff ff
-5.0000000000000000e+00 5.0000000000000000e+00
-5.0000000000000000e+00 5.0000000000000000e+00
-5.0000000000000000e+00 5.0000000000000000e+00
ITEM: ATOMS id type xs ys zs
1 1 0.547171 0.940357 0.261097
2 1 0.65631 0.180385 0.67967
3 1 0.0896581 0.835028 0.562076
4 1 0.0326805 0.107519 0.136065
5 1 0.259003 0.143109 0.679553
6 1 0.943298 0.0717844 0.0228513
7 1 0.677015 0.174712 0.789688
8 1 0.73182 0.554192 0.656724
9 1 0.937819 0.0616667 0.764072
10 1 0.398437 0.0560144 0.537861
11 1 0.854049 0.11132 0.436864
12 1 0.761294 0.926428 0.292771
13 1 0.210826 0.139925 0.881601
14 1 0.916798 0.711227 0.868181
15 1 0.673258 0.934471 0.818785
16 1 0.321851 0.0713817 0.617038
17 1 0.318955 0.0620716 0.730248
18 1 0.612537 0.200409 0.877468
ITEM: TIMESTEP
25
ITEM: NUMBER OF ATOMS
18
ITEM: BOX BOUNDS ff ff ff
-5.0000000000000000e+00 5.0000000000000000e+00
-5.0000000000000000e+00 5.0000000000000000e+00
-5.0000000000000000e+00 5.0000000000000000e+00
ITEM: ATOMS id type xs ys zs
1 1 0.547173 0.940357 0.261097
2 1 0.656309 0.180386 0.679673
3 1 0.0896581 0.835028 0.562076
4 1 0.0326805 0.107519 0.136065
5 1 0.259003 0.14311 0.679546
6 1 0.943298 0.0717844 0.0228513
7 1 0.677016 0.174712 0.789688
8 1 0.73182 0.554192 0.656724
9 1 0.937819 0.0616669 0.764072
10 1 0.398424 0.0560176 0.537876
11 1 0.854049 0.11132 0.436864
12 1 0.761291 0.926428 0.292771
13 1 0.210829 0.139923 0.881594
14 1 0.916797 0.711227 0.868181
15 1 0.673258 0.934471 0.818785
16 1 0.321857 0.0713837 0.617041
17 1 0.318959 0.0620674 0.730242
18 1 0.612538 0.200409 0.877464
ITEM: TIMESTEP
26
ITEM: NUMBER OF ATOMS
18
ITEM: BOX BOUNDS ff ff ff
-5.0000000000000000e+00 5.0000000000000000e+00
-5.0000000000000000e+00 5.0000000000000000e+00
-5.0000000000000000e+00 5.0000000000000000e+00
ITEM: ATOMS id type xs ys zs
1 1 0.547266 0.940351 0.261111
2 1 0.656261 0.180398 0.679729
3 1 0.0896583 0.835028 0.562076
4 1 0.0326807 0.107519 0.136065
5 1 0.259611 0.142384 0.679312
6 1 0.943297 0.0717845 0.0228522
7 1 0.677143 0.174661 0.789622
8 1 0.731823 0.554192 0.656729
9 1 0.937797 0.0616766 0.764068
10 1 0.39872 0.0559827 0.537646
11 1 0.854044 0.111322 0.436874
12 1 0.761198 0.926434 0.292757
13 1 0.210948 0.139863 0.881344
14 1 0.91679 0.711227 0.868176
15 1 0.673262 0.934466 0.818785
16 1 0.321019 0.0719021 0.618505
17 1 0.318797 0.0623782 0.7295
18 1 0.612462 0.200434 0.87746
ITEM: TIMESTEP
27
ITEM: NUMBER OF ATOMS
18
ITEM: BOX BOUNDS ff ff ff
-5.0000000000000000e+00 5.0000000000000000e+00
-5.0000000000000000e+00 5.0000000000000000e+00
-5.0000000000000000e+00 5.0000000000000000e+00
ITEM: ATOMS id type xs ys zs
1 1 0.54735 0.940345 0.261124
2 1 0.65621 0.180411 0.679739
3 1 0.0896585 0.835028 0.562076
4 1 0.0326809 0.107519 0.136065
5 1 0.259232 0.142863 0.679387
6 1 0.943297 0.0717846 0.022853
7 1 0.677215 0.174632 0.789671
8 1 0.731825 0.554192 0.656733
9 1 0.937777 0.0616853 0.764064
10 1 0.398331 0.0560845 0.538121
11 1 0.854041 0.111323 0.436882
12 1 0.761114 0.926439 0.292745
13 1 0.211056 0.139808 0.881117
14 1 0.916784 0.711227 0.868172
15 1 0.673265 0.934463 0.818785
16 1 0.321525 0.0716504 0.617597
17 1 0.318975 0.0621113 0.730092
18 1 0.612443 0.200436 0.877387
ITEM: TIMESTEP
28
ITEM: NUMBER OF ATOMS
18
ITEM: BOX BOUNDS ff ff ff
-5.0000000000000000e+00 5.0000000000000000e+00
-5.0000000000000000e+00 5.0000000000000000e+00
-5.0000000000000000e+00 5.0000000000000000e+00
ITEM: ATOMS id type xs ys zs
1 1 0.547424 0.94034 0.261135
2 1 0.65617 0.180421 0.679775
3 1 0.0896587 0.835028 0.562076
4 1 0.0326811 0.107519 0.136066
5 1 0.259475 0.142574 0.679329
6 1 0.943297 0.0717847 0.0228538
7 1 0.677283 0.174605 0.789676
8 1 0.731827 0.554192 0.656737
9 1 0.937759 0.061693 0.764062
10 1 0.398436 0.0560825 0.538072
11 1 0.854038 0.111323 0.43689
12 1 0.76104 0.926444 0.292735
13 1 0.211151 0.13976 0.880917
14 1 0.916779 0.711227 0.868168
15 1 0.673268 0.93446 0.818785
16 1 0.321175 0.0718498 0.618214
17 1 0.3189 0.0622581 0.729787
18 1 0.612419 0.200442 0.877335
ITEM: TIMESTEP
29
ITEM: NUMBER OF ATOMS
18
ITEM: BOX BOUNDS ff ff ff
-5.0000000000000000e+00 5.0000000000000000e+00
-5.0000000000000000e+00 5.0000000000000000e+00
-5.0000000000000000e+00 5.0000000000000000e+00
ITEM: ATOMS id type xs ys zs
1 1 0.547741 0.940319 0.261183
2 1 0.655997 0.180464 0.679919
3 1 0.0896594 0.835028 0.562076
4 1 0.0326819 0.107519 0.136067
5 1 0.25957 0.142489 0.679365
6 1 0.943296 0.071785 0.0228568
7 1 0.677562 0.174493 0.78972
8 1 0.731835 0.554192 0.656754
9 1 0.937685 0.0617257 0.764049
10 1 0.398232 0.0562077 0.538546
11 1 0.854024 0.111327 0.436921
12 1 0.760722 0.926464 0.292689
13 1 0.21156 0.139552 0.880059
14 1 0.916755 0.711227 0.868152
15 1 0.673279 0.934446 0.818785
16 1 0.320943 0.071979 0.618608
17 1 0.318912 0.0623245 0.729765
18 1 0.612324 0.200461 0.877097
ITEM: TIMESTEP
30
ITEM: NUMBER OF ATOMS
18
ITEM: BOX BOUNDS ff ff ff
-5.0000000000000000e+00 5.0000000000000000e+00
-5.0000000000000000e+00 5.0000000000000000e+00
-5.0000000000000000e+00 5.0000000000000000e+00
ITEM: ATOMS id type xs ys zs
1 1 0.548002 0.940302 0.261223
2 1 0.655855 0.1805 0.680035
3 1 0.08966 0.835027 0.562076
4 1 0.0326826 0.107519 0.136068
5 1 0.259365 0.14276 0.67952
6 1 0.943296 0.0717853 0.0228594
7 1 0.677783 0.174404 0.789769
8 1 0.731842 0.554192 0.656768
9 1 0.937624 0.0617524 0.764038
10 1 0.397991 0.0563251 0.539011
11 1 0.854013 0.11133 0.436947
12 1 0.760461 0.92648 0.292651
13 1 0.211896 0.13938 0.879352
14 1 0.916736 0.711227 0.868139
15 1 0.673289 0.934435 0.818785
16 1 0.32103 0.0718699 0.618358
17 1 0.319 0.062239 0.730123
18 1 0.612254 0.200473 0.87689
ITEM: TIMESTEP
31
ITEM: NUMBER OF ATOMS
18
ITEM: BOX BOUNDS ff ff ff
-5.0000000000000000e+00 5.0000000000000000e+00
-5.0000000000000000e+00 5.0000000000000000e+00
-5.0000000000000000e+00 5.0000000000000000e+00
ITEM: ATOMS id type xs ys zs
1 1 0.551644 0.94006 0.261772
2 1 0.653888 0.181002 0.681775
3 1 0.0896683 0.835026 0.562074
4 1 0.0326917 0.107519 0.136082
5 1 0.258061 0.144447 0.682757
6 1 0.943287 0.0717889 0.0228939
7 1 0.680717 0.173226 0.790522
8 1 0.731938 0.554193 0.656954
9 1 0.936785 0.0621209 0.763897
10 1 0.399161 0.0570392 0.540799
11 1 0.85386 0.111372 0.4373
12 1 0.756816 0.92671 0.292127
13 1 0.216655 0.136958 0.869352
14 1 0.916471 0.711224 0.867959
15 1 0.673421 0.93428 0.818785
16 1 0.317514 0.0713845 0.620775
17 1 0.318786 0.0630589 0.732957
18 1 0.611416 0.200595 0.873834
ITEM: TIMESTEP
32
ITEM: NUMBER OF ATOMS
18
ITEM: BOX BOUNDS ff ff ff
-5.0000000000000000e+00 5.0000000000000000e+00
-5.0000000000000000e+00 5.0000000000000000e+00
-5.0000000000000000e+00 5.0000000000000000e+00
ITEM: ATOMS id type xs ys zs
1 1 0.555246 0.939821 0.262314
2 1 0.651979 0.181489 0.683643
3 1 0.0896763 0.835024 0.562072
4 1 0.0327006 0.107519 0.136095
5 1 0.25731 0.145382 0.686106
6 1 0.943279 0.0717925 0.0229277
7 1 0.683698 0.172027 0.790982
8 1 0.732031 0.554194 0.657137
9 1 0.935962 0.0624827 0.763758
10 1 0.399168 0.0579411 0.543672
11 1 0.853711 0.111412 0.437646
12 1 0.75321 0.926937 0.291608
13 1 0.221414 0.134537 0.859352
14 1 0.916211 0.711221 0.867782
15 1 0.67355 0.934129 0.818786
16 1 0.315003 0.0709428 0.622441
17 1 0.318158 0.0643911 0.735338
18 1 0.610471 0.200761 0.870953
ITEM: TIMESTEP
33
ITEM: NUMBER OF ATOMS
18
ITEM: BOX BOUNDS ff ff ff
-5.0000000000000000e+00 5.0000000000000000e+00
-5.0000000000000000e+00 5.0000000000000000e+00
-5.0000000000000000e+00 5.0000000000000000e+00
ITEM: ATOMS id type xs ys zs
1 1 0.556229 0.939756 0.262462
2 1 0.65153 0.181605 0.684389
3 1 0.0896783 0.835023 0.562072
4 1 0.0327028 0.107519 0.136098
5 1 0.257791 0.144632 0.686833
6 1 0.943277 0.0717934 0.022936
7 1 0.684348 0.171761 0.790968
8 1 0.732054 0.554194 0.657182
9 1 0.935754 0.0625738 0.763724
10 1 0.397501 0.0584264 0.545955
11 1 0.853675 0.111422 0.43773
12 1 0.752227 0.926999 0.291466
13 1 0.222906 0.133788 0.856222
14 1 0.916147 0.71122 0.867738
15 1 0.673582 0.934092 0.818786
16 1 0.315517 0.0712373 0.62259
17 1 0.317558 0.0651866 0.735376
18 1 0.610302 0.200774 0.870083
ITEM: TIMESTEP
34
ITEM: NUMBER OF ATOMS
18
ITEM: BOX BOUNDS ff ff ff
-5.0000000000000000e+00 5.0000000000000000e+00
-5.0000000000000000e+00 5.0000000000000000e+00
-5.0000000000000000e+00 5.0000000000000000e+00
ITEM: ATOMS id type xs ys zs
1 1 0.557726 0.939657 0.262687
2 1 0.65076 0.181825 0.685225
3 1 0.0896808 0.835023 0.562072
4 1 0.0327054 0.107519 0.136102
5 1 0.256891 0.145402 0.685791
6 1 0.943274 0.0717945 0.0229463
7 1 0.685203 0.171425 0.791486
8 1 0.732083 0.554195 0.657239
9 1 0.935484 0.0626924 0.763684
10 1 0.394662 0.059173 0.54957
11 1 0.853632 0.111433 0.437835
12 1 0.750729 0.927094 0.291249
13 1 0.225775 0.132369 0.85022
14 1 0.916066 0.711219 0.867683
15 1 0.673622 0.934045 0.818786
16 1 0.315854 0.0727107 0.624619
17 1 0.318368 0.0637135 0.736862
18 1 0.610263 0.200714 0.868557
ITEM: TIMESTEP
35
ITEM: NUMBER OF ATOMS
18
ITEM: BOX BOUNDS ff ff ff
-5.0000000000000000e+00 5.0000000000000000e+00
-5.0000000000000000e+00 5.0000000000000000e+00
-5.0000000000000000e+00 5.0000000000000000e+00
ITEM: ATOMS id type xs ys zs
1 1 0.560126 0.939499 0.263047
2 1 0.649571 0.182166 0.686705
3 1 0.0896845 0.835022 0.562071
4 1 0.0327096 0.107519 0.136109
5 1 0.256077 0.145694 0.685691
6 1 0.943271 0.0717962 0.0229622
7 1 0.686899 0.170757 0.791796
8 1 0.732128 0.554196 0.657327
9 1 0.935062 0.0628775 0.763623
10 1 0.39221 0.0600078 0.553347
11 1 0.853565 0.111451 0.437996
12 1 0.748327 0.927247 0.2909
13 1 0.230569 0.129989 0.84022
14 1 0.915942 0.711217 0.867599
15 1 0.673684 0.933972 0.818786
16 1 0.314744 0.0748839 0.629322
17 1 0.318382 0.0629437 0.738613
18 1 0.609829 0.200764 0.8665
ITEM: TIMESTEP
36
ITEM: NUMBER OF ATOMS
18
ITEM: BOX BOUNDS ff ff ff
-5.0000000000000000e+00 5.0000000000000000e+00
-5.0000000000000000e+00 5.0000000000000000e+00
-5.0000000000000000e+00 5.0000000000000000e+00
ITEM: ATOMS id type xs ys zs
1 1 0.562455 0.939345 0.263396
2 1 0.648429 0.182496 0.688168
3 1 0.0896881 0.835021 0.56207
4 1 0.0327135 0.107518 0.136114
5 1 0.254749 0.14652 0.687188
6 1 0.943267 0.0717978 0.0229774
7 1 0.688638 0.170073 0.791964
8 1 0.732171 0.554197 0.65741
9 1 0.934659 0.0630544 0.763565
10 1 0.390527 0.0606827 0.556318
11 1 0.853501 0.111468 0.438149
12 1 0.745997 0.927395 0.290562
13 1 0.235377 0.127591 0.83022
14 1 0.915823 0.711216 0.867518
15 1 0.673743 0.933903 0.818786
16 1 0.313983 0.0759597 0.632701
17 1 0.317757 0.0629081 0.740891
18 1 0.609301 0.200856 0.864613
ITEM: TIMESTEP
37
ITEM: NUMBER OF ATOMS
18
ITEM: BOX BOUNDS ff ff ff
-5.0000000000000000e+00 5.0000000000000000e+00