ITEM: TIMESTEP
0
ITEM: NUMBER OF ATOMS
16
ITEM: BOX BOUNDS ff ff ff
-5.0000000000000000e+00 5.0000000000000000e+00
-5.0000000000000000e+00 5.0000000000000000e+00
-5.0000000000000000e+00 5.0000000000000000e+00
ITEM: ATOMS id type xs ys zs
1 1 0.705143 0.339549 0.802658
2 1 0.275369 0.118664 0.385797
3 1 0.0939704 0.360401 0.25737
4 1 0.613135 0.960087 0.176009
5 1 0.182784 0.0478632 0.436855
6 1 0.220149 0.0417902 0.367711
7 1 0.111598 0.62253 0.859505
8 1 0.696974 0.0401132 0.18231
9 1 0.0767218 0.462707 0.710704
10 1 0.799726 0.00194075 0.618241
11 1 0.775005 0.503104 0.666222
12 1 0.194983 0.0833903 0.540603
13 1 0.919622 0.0852759 0.231357
14 1 0.414429 0.312857 0.187745
15 1 0.429641 0.980994 0.56497
16 1 0.449397 0.0078069 0.210615
ITEM: TIMESTEP
1
ITEM: NUMBER OF ATOMS
16
ITEM: BOX BOUNDS ff ff ff
-5.0000000000000000e+00 5.0000000000000000e+00
-5.0000000000000000e+00 5.0000000000000000e+00
-5.0000000000000000e+00 5.0000000000000000e+00
ITEM: ATOMS id type xs ys zs
1 1 0.705143 0.33955 0.802658
2 1 0.275519 0.118881 0.385858
3 1 0.0939705 0.360401 0.25737
4 1 0.613135 0.960087 0.176009
5 1 0.180119 0.0483033 0.441791
6 1 0.222661 0.0411307 0.362711
7 1 0.111598 0.622529 0.859504
8 1 0.696974 0.0401132 0.18231
9 1 0.0767219 0.462707 0.710704
10 1 0.799726 0.00194077 0.618241
11 1 0.775004 0.503103 0.666222
12 1 0.194986 0.0833928 0.540606
13 1 0.919622 0.0852758 0.231357
14 1 0.414429 0.312857 0.187745
15 1 0.429641 0.980994 0.56497
16 1 0.449397 0.00780706 0.210615
ITEM: TIMESTEP
2
ITEM: NUMBER OF ATOMS
16
ITEM: BOX BOUNDS ff ff ff
-5.0000000000000000e+00 5.0000000000000000e+00
-5.0000000000000000e+00 5.0000000000000000e+00
-5.0000000000000000e+00 5.0000000000000000e+00
ITEM: ATOMS id type xs ys zs
1 1 0.705144 0.339552 0.802656
2 1 0.276353 0.120159 0.386301
3 1 0.0939709 0.3604 0.25737
4 1 0.613135 0.960087 0.176009
5 1 0.177661 0.0486818 0.446131
6 1 0.224242 0.0393887 0.357711
7 1 0.111597 0.622527 0.859502
8 1 0.696975 0.0401136 0.18231
9 1 0.0767224 0.46271 0.710707
10 1 0.799726 0.00194084 0.618241
11 1 0.775003 0.503101 0.666224
12 1 0.19503 0.0834786 0.540822
13 1 0.919619 0.0852753 0.231356
14 1 0.414429 0.312856 0.187745
15 1 0.429641 0.980994 0.56497
16 1 0.449397 0.00780807 0.210616
ITEM: TIMESTEP
3
ITEM: NUMBER OF ATOMS
16
ITEM: BOX BOUNDS ff ff ff
-5.0000000000000000e+00 5.0000000000000000e+00
-5.0000000000000000e+00 5.0000000000000000e+00
-5.0000000000000000e+00 5.0000000000000000e+00
ITEM: ATOMS id type xs ys zs
1 1 0.705153 0.339572 0.802638
2 1 0.27985 0.126031 0.388908
3 1 0.0939745 0.360397 0.257372
4 1 0.613135 0.960087 0.176009
5 1 0.173729 0.0479904 0.447814
6 1 0.223745 0.0324585 0.348861
7 1 0.111592 0.622504 0.859481
8 1 0.696983 0.0401166 0.182317
9 1 0.0767275 0.462732 0.710727
10 1 0.799726 0.00194152 0.61824
11 1 0.774995 0.50308 0.666242
12 1 0.195975 0.08523 0.545368
13 1 0.919598 0.0852709 0.231352
14 1 0.414426 0.31285 0.187749
15 1 0.429641 0.980994 0.56497
16 1 0.449397 0.00781713 0.210624
ITEM: TIMESTEP
4
ITEM: NUMBER OF ATOMS
16
ITEM: BOX BOUNDS ff ff ff
-5.0000000000000000e+00 5.0000000000000000e+00
-5.0000000000000000e+00 5.0000000000000000e+00
-5.0000000000000000e+00 5.0000000000000000e+00
ITEM: ATOMS id type xs ys zs
1 1 0.705168 0.339605 0.80261
2 1 0.279132 0.125439 0.389303
3 1 0.0939805 0.360391 0.257374
4 1 0.613135 0.960087 0.17601
5 1 0.173314 0.0473762 0.445183
6 1 0.224141 0.0325204 0.348352
7 1 0.111584 0.622468 0.859447
8 1 0.696996 0.0401216 0.182327
9 1 0.0767359 0.462767 0.71076
10 1 0.799726 0.00194262 0.61824
11 1 0.77498 0.503046 0.666269
12 1 0.196733 0.086379 0.548089
13 1 0.919563 0.0852639 0.231345
14 1 0.414421 0.312841 0.187754
15 1 0.429642 0.980994 0.564969
16 1 0.449396 0.00783166 0.210638
ITEM: TIMESTEP
5
ITEM: NUMBER OF ATOMS
16
ITEM: BOX BOUNDS ff ff ff
-5.0000000000000000e+00 5.0000000000000000e+00
-5.0000000000000000e+00 5.0000000000000000e+00
-5.0000000000000000e+00 5.0000000000000000e+00
ITEM: ATOMS id type xs ys zs
1 1 0.705228 0.339743 0.802489
2 1 0.274886 0.121077 0.390267
3 1 0.0940055 0.360367 0.257385
4 1 0.613134 0.960086 0.176012
5 1 0.174206 0.049146 0.445035
6 1 0.226883 0.0345054 0.347004
7 1 0.111551 0.622313 0.859303
8 1 0.697049 0.0401426 0.182372
9 1 0.076771 0.462918 0.710901
10 1 0.799724 0.00194725 0.618237
11 1 0.774919 0.502904 0.666387
12 1 0.197437 0.0870026 0.548523
13 1 0.919416 0.0852341 0.231316
14 1 0.414401 0.3128 0.187777
15 1 0.429642 0.980993 0.564968
16 1 0.449394 0.00789245 0.210696
ITEM: TIMESTEP
6
ITEM: NUMBER OF ATOMS
16
ITEM: BOX BOUNDS ff ff ff
-5.0000000000000000e+00 5.0000000000000000e+00
-5.0000000000000000e+00 5.0000000000000000e+00
-5.0000000000000000e+00 5.0000000000000000e+00
ITEM: ATOMS id type xs ys zs
1 1 0.705394 0.340121 0.802161
2 1 0.266374 0.115283 0.396415
3 1 0.0940734 0.3603 0.257413
4 1 0.613131 0.960086 0.176017
5 1 0.17847 0.0545293 0.443738
6 1 0.22974 0.0337565 0.342085
7 1 0.11146 0.621892 0.858909
8 1 0.697197 0.0401998 0.182492
9 1 0.0768668 0.46333 0.711285
10 1 0.79972 0.00195982 0.618229
11 1 0.774753 0.502515 0.666708
12 1 0.199079 0.0882079 0.548324
13 1 0.919015 0.0851531 0.231237
14 1 0.414346 0.31269 0.187839
15 1 0.429644 0.980991 0.564963
16 1 0.449383 0.00805721 0.210855
ITEM: TIMESTEP
7
ITEM: NUMBER OF ATOMS
16
ITEM: BOX BOUNDS ff ff ff
-5.0000000000000000e+00 5.0000000000000000e+00
-5.0000000000000000e+00 5.0000000000000000e+00
-5.0000000000000000e+00 5.0000000000000000e+00
ITEM: ATOMS id type xs ys zs
1 1 0.705458 0.340267 0.802034
2 1 0.263591 0.114188 0.399573
3 1 0.0940994 0.360275 0.257424
4 1 0.61313 0.960086 0.176019
5 1 0.1803 0.0565503 0.442919
6 1 0.230153 0.0323923 0.339775
7 1 0.111425 0.62173 0.858758
8 1 0.697254 0.0402218 0.182538
9 1 0.0769037 0.463489 0.711432
10 1 0.799719 0.00196464 0.618226
11 1 0.774689 0.502365 0.666832
12 1 0.199715 0.0886638 0.548194
13 1 0.918861 0.085122 0.231206
14 1 0.414325 0.312647 0.187862
15 1 0.429645 0.98099 0.564961
16 1 0.449378 0.00812021 0.210916
ITEM: TIMESTEP
8
ITEM: NUMBER OF ATOMS
16
ITEM: BOX BOUNDS ff ff ff
-5.0000000000000000e+00 5.0000000000000000e+00
-5.0000000000000000e+00 5.0000000000000000e+00
-5.0000000000000000e+00 5.0000000000000000e+00
ITEM: ATOMS id type xs ys zs
1 1 0.705474 0.340301 0.802004
2 1 0.264983 0.116829 0.401262
3 1 0.0941052 0.360269 0.257427
4 1 0.61313 0.960086 0.176019
5 1 0.180092 0.05589 0.442218
6 1 0.228811 0.0303249 0.339009
7 1 0.111417 0.621691 0.858722
8 1 0.697267 0.040227 0.182549
9 1 0.0769125 0.463527 0.711468
10 1 0.799719 0.00196573 0.618226
11 1 0.774673 0.50233 0.666861
12 1 0.199896 0.0887544 0.54795
13 1 0.918825 0.0851148 0.231199
14 1 0.414321 0.312639 0.187866
15 1 0.429645 0.98099 0.564961
16 1 0.449375 0.00813329 0.21093
ITEM: TIMESTEP
9
ITEM: NUMBER OF ATOMS
16
ITEM: BOX BOUNDS ff ff ff
-5.0000000000000000e+00 5.0000000000000000e+00
-5.0000000000000000e+00 5.0000000000000000e+00
-5.0000000000000000e+00 5.0000000000000000e+00
ITEM: ATOMS id type xs ys zs
1 1 0.705519 0.340405 0.801914
2 1 0.264994 0.117379 0.402598
3 1 0.0941222 0.360252 0.257434
4 1 0.613129 0.960086 0.176021
5 1 0.18111 0.0551647 0.439911
6 1 0.227395 0.0303984 0.341231
7 1 0.111392 0.621575 0.858613
8 1 0.697309 0.0402425 0.182581
9 1 0.0769389 0.46364 0.711573
10 1 0.799718 0.00196898 0.618224
11 1 0.774628 0.502223 0.666949
12 1 0.200352 0.0888704 0.546633
13 1 0.918719 0.0850932 0.231178
14 1 0.414308 0.312613 0.187879
15 1 0.429646 0.98099 0.56496
16 1 0.449367 0.00817172 0.21097
ITEM: TIMESTEP
10
ITEM: NUMBER OF ATOMS
16
ITEM: BOX BOUNDS ff ff ff
-5.0000000000000000e+00 5.0000000000000000e+00
-5.0000000000000000e+00 5.0000000000000000e+00
-5.0000000000000000e+00 5.0000000000000000e+00
ITEM: ATOMS id type xs ys zs
1 1 0.705563 0.340507 0.801826
2 1 0.265221 0.117683 0.403329
3 1 0.0941388 0.360235 0.257442
4 1 0.613129 0.960086 0.176022
5 1 0.180919 0.0546574 0.440037
6 1 0.227041 0.0306482 0.34217
7 1 0.111367 0.621461 0.858507
8 1 0.69735 0.0402577 0.182612
9 1 0.0769647 0.463752 0.711677
10 1 0.799717 0.00197215 0.618222
11 1 0.774583 0.502119 0.667036
12 1 0.200736 0.0888371 0.544775
13 1 0.918614 0.0850721 0.231157
14 1 0.414296 0.312588 0.187892
15 1 0.429646 0.980989 0.564959
16 1 0.44936 0.00820886 0.211009
ITEM: TIMESTEP
11
ITEM: NUMBER OF ATOMS
16
ITEM: BOX BOUNDS ff ff ff
-5.0000000000000000e+00 5.0000000000000000e+00
-5.0000000000000000e+00 5.0000000000000000e+00
-5.0000000000000000e+00 5.0000000000000000e+00
ITEM: ATOMS id type xs ys zs
1 1 0.705602 0.340595 0.801749
2 1 0.265062 0.117408 0.403827
3 1 0.0941531 0.360221 0.257448
4 1 0.613128 0.960086 0.176023
5 1 0.179856 0.0544951 0.441143
6 1 0.227778 0.030853 0.341482
7 1 0.111346 0.621362 0.858415
8 1 0.697386 0.0402708 0.182639
9 1 0.0769872 0.463849 0.711768
10 1 0.799716 0.00197487 0.61822
11 1 0.774544 0.502028 0.667111
12 1 0.201274 0.0890811 0.543806
13 1 0.918524 0.0850539 0.231139
14 1 0.414286 0.312566 0.187903
15 1 0.429647 0.980989 0.564958
16 1 0.449357 0.00824043 0.211041
ITEM: TIMESTEP
12
ITEM: NUMBER OF ATOMS
16
ITEM: BOX BOUNDS ff ff ff
-5.0000000000000000e+00 5.0000000000000000e+00
-5.0000000000000000e+00 5.0000000000000000e+00
-5.0000000000000000e+00 5.0000000000000000e+00
ITEM: ATOMS id type xs ys zs
1 1 0.706132 0.341804 0.800701
2 1 0.260499 0.111948 0.411941
3 1 0.0943477 0.360024 0.257535
4 1 0.613121 0.960085 0.176039
5 1 0.169856 0.0502252 0.442058
6 1 0.234345 0.0353639 0.33938
7 1 0.111054 0.620005 0.857149
8 1 0.69788 0.0404508 0.183003
9 1 0.0772948 0.465178 0.713005
10 1 0.799704 0.00201198 0.618197
11 1 0.774013 0.500787 0.668137
12 1 0.210007 0.0944589 0.536156
13 1 0.917291 0.0848048 0.230895
14 1 0.414144 0.312272 0.18805
15 1 0.429653 0.980983 0.564945
16 1 0.449306 0.00867138 0.21148
ITEM: TIMESTEP
13
ITEM: NUMBER OF ATOMS
16
ITEM: BOX BOUNDS ff ff ff
-5.0000000000000000e+00 5.0000000000000000e+00
-5.0000000000000000e+00 5.0000000000000000e+00
-5.0000000000000000e+00 5.0000000000000000e+00
ITEM: ATOMS id type xs ys zs
1 1 0.706523 0.342697 0.799928
2 1 0.256896 0.109044 0.420204
3 1 0.0944904 0.359881 0.257599
4 1 0.613116 0.960084 0.17605
5 1 0.163981 0.0471919 0.440966
6 1 0.23765 0.0373899 0.33804
7 1 0.110838 0.619002 0.856213
8 1 0.698245 0.0405835 0.183272
9 1 0.077522 0.46616 0.713919
10 1 0.799695 0.00203923 0.61818
11 1 0.773621 0.49987 0.668894
12 1 0.216722 0.0984861 0.529793
13 1 0.916383 0.0846214 0.230715
14 1 0.414041 0.312056 0.188158
15 1 0.429657 0.980979 0.564935
16 1 0.449266 0.00898789 0.211803
ITEM: TIMESTEP
14
ITEM: NUMBER OF ATOMS
16
ITEM: BOX BOUNDS ff ff ff
-5.0000000000000000e+00 5.0000000000000000e+00
-5.0000000000000000e+00 5.0000000000000000e+00
-5.0000000000000000e+00 5.0000000000000000e+00
ITEM: ATOMS id type xs ys zs
1 1 0.706584 0.342837 0.799807
2 1 0.255795 0.108914 0.422997
3 1 0.0945107 0.35986 0.257608
4 1 0.613115 0.960084 0.176052
5 1 0.16554 0.0475622 0.440045
6 1 0.236681 0.0372133 0.338985
7 1 0.110803 0.618843 0.856065
8 1 0.698304 0.0406039 0.183312
9 1 0.0775579 0.466316 0.714065
10 1 0.799694 0.00204318 0.618178
11 1 0.773559 0.499726 0.669013
12 1 0.217317 0.0984377 0.526899
13 1 0.916246 0.0845937 0.230688
14 1 0.414027 0.312025 0.188173
15 1 0.429658 0.980978 0.564934
16 1 0.449255 0.00903384 0.211853
ITEM: TIMESTEP
15
ITEM: NUMBER OF ATOMS
16
ITEM: BOX BOUNDS ff ff ff
-5.0000000000000000e+00 5.0000000000000000e+00
-5.0000000000000000e+00 5.0000000000000000e+00
-5.0000000000000000e+00 5.0000000000000000e+00
ITEM: ATOMS id type xs ys zs
1 1 0.706705 0.343112 0.799569
2 1 0.257736 0.110579 0.423418
3 1 0.094547 0.359823 0.257625
4 1 0.613113 0.960084 0.176055
5 1 0.167996 0.0463812 0.436311
6 1 0.232946 0.0375388 0.344193
7 1 0.110736 0.61853 0.855772
8 1 0.698422 0.0406433 0.183386
9 1 0.0776285 0.466625 0.714352
10 1 0.799692 0.00205036 0.618173
11 1 0.773439 0.499444 0.669246
12 1 0.216812 0.0976561 0.52486
13 1 0.915987 0.0845415 0.230636
14 1 0.414001 0.31197 0.188198
15 1 0.429659 0.980977 0.564931
16 1 0.449228 0.0091166 0.211944
ITEM: TIMESTEP
16
ITEM: NUMBER OF ATOMS
16
ITEM: BOX BOUNDS ff ff ff
-5.0000000000000000e+00 5.0000000000000000e+00
-5.0000000000000000e+00 5.0000000000000000e+00
-5.0000000000000000e+00 5.0000000000000000e+00
ITEM: ATOMS id type xs ys zs
1 1 0.70678 0.343286 0.79942
2 1 0.260258 0.112968 0.42247
3 1 0.0945686 0.359801 0.257635
4 1 0.613113 0.960084 0.176057
5 1 0.16824 0.045882 0.435999
6 1 0.231568 0.0365985 0.344657
7 1 0.110693 0.618331 0.855587
8 1 0.698498 0.0406678 0.183431
9 1 0.0776731 0.466821 0.714534
10 1 0.79969 0.00205466 0.61817
11 1 0.773363 0.499267 0.669393
12 1 0.21551 0.096724 0.525575
13 1 0.915828 0.0845095 0.230605
14 1 0.413986 0.311937 0.188213
15 1 0.429659 0.980976 0.56493
16 1 0.449218 0.00916496 0.211995
ITEM: TIMESTEP
17
ITEM: NUMBER OF ATOMS
16
ITEM: BOX BOUNDS ff ff ff
-5.0000000000000000e+00 5.0000000000000000e+00
-5.0000000000000000e+00 5.0000000000000000e+00
-5.0000000000000000e+00 5.0000000000000000e+00
ITEM: ATOMS id type xs ys zs
1 1 0.706828 0.343396 0.799326
2 1 0.25865 0.111744 0.423182
3 1 0.0945819 0.359788 0.257641
4 1 0.613112 0.960084 0.176058
5 1 0.169404 0.0471249 0.436877
6 1 0.231996 0.0368958 0.344714
7 1 0.110665 0.618205 0.855469
8 1 0.698546 0.0406831 0.183459
9 1 0.0777014 0.466945 0.71465
10 1 0.79969 0.00205729 0.618169
11 1 0.773315 0.499155 0.669485
12 1 0.215577 0.0964186 0.523879
13 1 0.915729 0.0844896 0.230585
14 1 0.413977 0.311917 0.188223
15 1 0.42966 0.980976 0.564929
16 1 0.449214 0.00919419 0.212026
ITEM: TIMESTEP
18
ITEM: NUMBER OF ATOMS
16
ITEM: BOX BOUNDS ff ff ff
-5.0000000000000000e+00 5.0000000000000000e+00
-5.0000000000000000e+00 5.0000000000000000e+00
-5.0000000000000000e+00 5.0000000000000000e+00
ITEM: ATOMS id type xs ys zs
1 1 0.706845 0.343434 0.799293
2 1 0.259179 0.112133 0.42278
3 1 0.0945865 0.359783 0.257643
4 1 0.613112 0.960084 0.176058
5 1 0.168776 0.0466232 0.436468
6 1 0.232017 0.0368173 0.344623
7 1 0.110656 0.61816 0.855428
8 1 0.698563 0.0406885 0.183469
9 1 0.0777113 0.466989 0.71469
10 1 0.799689 0.0020582 0.618168
11 1 0.773298 0.499116 0.669518
12 1 0.215673 0.0966139 0.524764
13 1 0.915694 0.0844826 0.230578
14 1 0.413974 0.31191 0.188226
15 1 0.42966 0.980976 0.564928
16 1 0.449213 0.00920436 0.212036
ITEM: TIMESTEP
19
ITEM: NUMBER OF ATOMS
16
ITEM: BOX BOUNDS ff ff ff
-5.0000000000000000e+00 5.0000000000000000e+00
-5.0000000000000000e+00 5.0000000000000000e+00
-5.0000000000000000e+00 5.0000000000000000e+00
ITEM: ATOMS id type xs ys zs
1 1 0.706886 0.343529 0.799212
2 1 0.259201 0.112237 0.422777
3 1 0.0945978 0.359772 0.257648
4 1 0.613111 0.960084 0.176059
5 1 0.168651 0.0465888 0.436364
6 1 0.23208 0.0367293 0.344538
7 1 0.110632 0.618051 0.855326
8 1 0.698605 0.0407016 0.183493
9 1 0.0777357 0.467096 0.71479
10 1 0.799689 0.00206043 0.618167
11 1 0.773257 0.499019 0.669598
12 1 0.215755 0.0966406 0.524914
13 1 0.915609 0.0844656 0.230562
14 1 0.413966 0.311893 0.188234
15 1 0.42966 0.980976 0.564927
16 1 0.449209 0.00922918 0.212062
ITEM: TIMESTEP
20
ITEM: NUMBER OF ATOMS
16
ITEM: BOX BOUNDS ff ff ff
-5.0000000000000000e+00 5.0000000000000000e+00
-5.0000000000000000e+00 5.0000000000000000e+00
-5.0000000000000000e+00 5.0000000000000000e+00
ITEM: ATOMS id type xs ys zs
1 1 0.70711 0.344044 0.79877
2 1 0.258787 0.112256 0.422787
3 1 0.094659 0.35971 0.257676
4 1 0.613109 0.960083 0.176064
5 1 0.168728 0.0469463 0.436157
6 1 0.232402 0.0365486 0.344543
7 1 0.110504 0.617457 0.854772
8 1 0.698832 0.0407732 0.183623
9 1 0.0778689 0.467682 0.715335
10 1 0.799685 0.00207255 0.618159
11 1 0.773032 0.498493 0.670033
12 1 0.216004 0.0964945 0.52488
13 1 0.915149 0.0843729 0.23047
14 1 0.413924 0.311801 0.188277
15 1 0.429662 0.980974 0.564923
16 1 0.449189 0.00936394 0.212202
ITEM: TIMESTEP
21
ITEM: NUMBER OF ATOMS
16
ITEM: BOX BOUNDS ff ff ff
-5.0000000000000000e+00 5.0000000000000000e+00
-5.0000000000000000e+00 5.0000000000000000e+00
-5.0000000000000000e+00 5.0000000000000000e+00
ITEM: ATOMS id type xs ys zs
1 1 0.70885 0.348045 0.795337
2 1 0.258945 0.114532 0.420905
3 1 0.0951286 0.359234 0.257893
4 1 0.613091 0.960081 0.176103
5 1 0.166982 0.0479418 0.435246
6 1 0.234747 0.0353017 0.34497
7 1 0.109506 0.612834 0.850461
8 1 0.700597 0.0413269 0.184622
9 1 0.0789039 0.472242 0.719577
10 1 0.799655 0.00216542 0.618099
11 1 0.771287 0.49441 0.673411
12 1 0.217049 0.0948508 0.525507
13 1 0.911596 0.0836583 0.229766
14 1 0.413602 0.311092 0.188607
15 1 0.429677 0.98096 0.56489
16 1 0.44903 0.0103973 0.213277
ITEM: TIMESTEP
22
ITEM: NUMBER OF ATOMS
16
ITEM: BOX BOUNDS ff ff ff
-5.0000000000000000e+00 5.0000000000000000e+00
-5.0000000000000000e+00 5.0000000000000000e+00
-5.0000000000000000e+00 5.0000000000000000e+00
ITEM: ATOMS id type xs ys zs
1 1 0.712613 0.356696 0.787915
2 1 0.258559 0.118916 0.417463
3 1 0.096141 0.358207 0.258359
4 1 0.613051 0.960076 0.176186
5 1 0.164135 0.0505346 0.43317
6 1 0.239544 0.0327545 0.346367
7 1 0.107346 0.602834 0.841136
8 1 0.704411 0.0425224 0.186778
9 1 0.0811427 0.482106 0.728752
10 1 0.799591 0.00236562 0.61797
11 1 0.767515 0.485583 0.680716
12 1 0.219369 0.0912423 0.525878
13 1 0.903929 0.0821161 0.228246
14 1 0.412908 0.309564 0.189318
15 1 0.429709 0.980929 0.564819
16 1 0.448682 0.0126248 0.215597
ITEM: TIMESTEP
23
ITEM: NUMBER OF ATOMS
16
ITEM: BOX BOUNDS ff ff ff
-5.0000000000000000e+00 5.0000000000000000e+00
-5.0000000000000000e+00 5.0000000000000000e+00
-5.0000000000000000e+00 5.0000000000000000e+00
ITEM: ATOMS id type xs ys zs
1 1 0.716367 0.365328 0.780512
2 1 0.257553 0.122701 0.414545
3 1 0.0971442 0.35719 0.258821
4 1 0.613012 0.960071 0.176269
5 1 0.162202 0.0534601 0.431011
6 1 0.244025 0.0304431 0.348233
7 1 0.105186 0.592834 0.831811
8 1 0.708208 0.0437104 0.188916
9 1 0.0833807 0.491972 0.737929
10 1 0.799528 0.00256397 0.617842
11 1 0.763751 0.476777 0.688003
12 1 0.221679 0.0876574 0.52537
13 1 0.896316 0.0805849 0.226737
14 1 0.41222 0.308049 0.190023
15 1 0.429741 0.980899 0.564748
16 1 0.448335 0.0148319 0.217897
ITEM: TIMESTEP
24
ITEM: NUMBER OF ATOMS
16
ITEM: BOX BOUNDS ff ff ff
-5.0000000000000000e+00 5.0000000000000000e+00
-5.0000000000000000e+00 5.0000000000000000e+00
-5.0000000000000000e+00 5.0000000000000000e+00
ITEM: ATOMS id type xs ys zs
1 1 0.720031 0.373766 0.773288
2 1 0.25497 0.124361 0.413078
3 1 0.0980726 0.356248 0.259249
4 1 0.612976 0.960066 0.176346
5 1 0.163077 0.0570287 0.428788
6 1 0.247275 0.029195 0.351458
7 1 0.103027 0.582834 0.822488
8 1 0.711811 0.0448262 0.19091
9 1 0.0856128 0.501849 0.747117
10 1 0.799469 0.0027473 0.617724
11 1 0.760077 0.468177 0.69512
12 1 0.223706 0.0844294 0.522391
13 1 0.889191 0.0791527 0.225325
14 1 0.411583 0.306647 0.190676
15 1 0.42977 0.980871 0.564683
16 1 0.447998 0.0168731 0.22003
ITEM: TIMESTEP
25
ITEM: NUMBER OF ATOMS
16
ITEM: BOX BOUNDS ff ff ff
-5.0000000000000000e+00 5.0000000000000000e+00
-5.0000000000000000e+00 5.0000000000000000e+00
-5.0000000000000000e+00 5.0000000000000000e+00
ITEM: ATOMS id type xs ys zs
1 1 0.720748 0.375453 0.77189
2 1 0.253357 0.122302 0.414912
3 1 0.0980847 0.356235 0.259254
4 1 0.612976 0.960066 0.176347
5 1 0.166049 0.0575822 0.428321
6 1 0.245955 0.0303461 0.353399
7 1 0.10305 0.582942 0.822587
8 1 0.712096 0.0448848 0.190974
9 1 0.0855901 0.501741 0.747016
10 1 0.799469 0.00274926 0.617722
11 1 0.759361 0.466489 0.696518
12 1 0.223723 0.0847952 0.51903
13 1 0.888879 0.0790924 0.225266
14 1 0.411574 0.306628 0.190685
15 1 0.42977 0.98087 0.564682
16 1 0.447966 0.0168969 0.220067
ITEM: TIMESTEP
26
ITEM: NUMBER OF ATOMS
16
ITEM: BOX BOUNDS ff ff ff
-5.0000000000000000e+00 5.0000000000000000e+00
-5.0000000000000000e+00 5.0000000000000000e+00
-5.0000000000000000e+00 5.0000000000000000e+00
ITEM: ATOMS id type xs ys zs
1 1 0.722099 0.378637 0.769251
2 1 0.25426 0.123185 0.417472
3 1 0.0981067 0.356212 0.259265
4 1 0.612975 0.960066 0.176348
5 1 0.165357 0.0559776 0.427159
6 1 0.244819 0.030326 0.354624
7 1 0.103058 0.582977 0.82262
8 1 0.712624 0.0449936 0.191093
9 1 0.085583 0.501703 0.746981
10 1 0.799468 0.00275282 0.617719
11 1 0.758009 0.463302 0.699155
12 1 0.224746 0.0855564 0.516311
13 1 0.8883 0.0789805 0.225157
14 1 0.411559 0.306593 0.190702
15 1 0.429771 0.98087 0.564681
16 1 0.447911 0.0169402 0.220132
ITEM: TIMESTEP
27
ITEM: NUMBER OF ATOMS
16
ITEM: BOX BOUNDS ff ff ff
-5.0000000000000000e+00 5.0000000000000000e+00
-5.0000000000000000e+00 5.0000000000000000e+00
-5.0000000000000000e+00 5.0000000000000000e+00
ITEM: ATOMS id type xs ys zs
1 1 0.722841 0.380385 0.767801
2 1 0.255135 0.124022 0.41614
3 1 0.0981238 0.356194 0.259273
4 1 0.612974 0.960066 0.176349
5 1 0.163777 0.055589 0.427107
6 1 0.245435 0.0303604 0.35466
7 1 0.103046 0.58292 0.822567
8 1 0.713056 0.045082 0.191189
9 1 0.0855958 0.50176 0.747033
10 1 0.799467 0.0027556 0.617717
11 1 0.757267 0.461551 0.700603
12 1 0.22491 0.0850897 0.517587
13 1 0.88783 0.0788896 0.225068
14 1 0.411548 0.306566 0.190715
15 1 0.429771 0.980869 0.56468
16 1 0.44787 0.0169737 0.220181
ITEM: TIMESTEP
28
ITEM: NUMBER OF ATOMS
16
ITEM: BOX BOUNDS ff ff ff
-5.0000000000000000e+00 5.0000000000000000e+00
-5.0000000000000000e+00 5.0000000000000000e+00
-5.0000000000000000e+00 5.0000000000000000e+00
ITEM: ATOMS id type xs ys zs
1 1 0.722616 0.379853 0.768241
2 1 0.254364 0.123336 0.416372
3 1 0.0981334 0.356184 0.259278
4 1 0.612974 0.960066 0.17635
5 1 0.164613 0.0562377 0.427373
6 1 0.2455 0.0305395 0.354986
7 1 0.103047 0.582923 0.82257
8 1 0.713308 0.0451335 0.191245
9 1 0.0855953 0.501756 0.747029
10 1 0.799466 0.00275714 0.617715
11 1 0.757492 0.462082 0.700163
12 1 0.224822 0.084956 0.516722
13 1 0.887556 0.0788368 0.225016
14 1 0.411541 0.30655 0.190722
15 1 0.429771 0.980869 0.564679
16 1 0.447848 0.0169923 0.220208
ITEM: TIMESTEP
29
ITEM: NUMBER OF ATOMS
16
ITEM: BOX BOUNDS ff ff ff
-5.0000000000000000e+00 5.0000000000000000e+00
-5.0000000000000000e+00 5.0000000000000000e+00
-5.0000000000000000e+00 5.0000000000000000e+00
ITEM: ATOMS id type xs ys zs
1 1 0.72232 0.37915 0.768813
2 1 0.253273 0.123907 0.415702
3 1 0.0981981 0.356116 0.259309
4 1 0.612972 0.960066 0.176355
5 1 0.164198 0.0576411 0.427305
6 1 0.246689 0.0297283 0.355288
7 1 0.103049 0.582929 0.822574
8 1 0.715048 0.0454885 0.191629
9 1 0.085596 0.501746 0.74702
10 1 0.799463 0.00276758 0.617706
11 1 0.757786 0.462775 0.699585
12 1 0.225419 0.0838514 0.516885
13 1 0.885672 0.0784728 0.224659
14 1 0.411498 0.306447 0.190771
15 1 0.429773 0.980867 0.564676
16 1 0.447692 0.0171189 0.220394
ITEM: TIMESTEP
30
ITEM: NUMBER OF ATOMS
16
ITEM: BOX BOUNDS ff ff ff
-5.0000000000000000e+00 5.0000000000000000e+00
-5.0000000000000000e+00 5.0000000000000000e+00
-5.0000000000000000e+00 5.0000000000000000e+00
ITEM: ATOMS id type xs ys zs
1 1 0.722698 0.380011 0.768056
2 1 0.250421 0.12786 0.413148
3 1 0.0985321 0.355766 0.259471
4 1 0.612961 0.960064 0.176378
5 1 0.161328 0.0611968 0.424125
6 1 0.249833 0.0273708 0.360119
7 1 0.103051 0.582905 0.822548
8 1 0.724314 0.0473743 0.193662
9 1 0.0856103 0.501748 0.747018
10 1 0.799446 0.00282137 0.617658
11 1 0.757402 0.461867 0.700316
12 1 0.229443 0.0790035 0.516369
13 1 0.875672 0.0765413 0.222765
14 1 0.411272 0.305915 0.191026
15 1 0.429782 0.980859 0.564655
16 1 0.446881 0.0177701 0.221356
ITEM: TIMESTEP
31
ITEM: NUMBER OF ATOMS
16
ITEM: BOX BOUNDS ff ff ff
-5.0000000000000000e+00 5.0000000000000000e+00
-5.0000000000000000e+00 5.0000000000000000e+00
-5.0000000000000000e+00 5.0000000000000000e+00
ITEM: ATOMS id type xs ys zs
1 1 0.722969 0.380624 0.767506
2 1 0.247723 0.13054 0.41168
3 1 0.0988518 0.35543 0.259627
4 1 0.61295 0.960063 0.1764
5 1 0.15996 0.0643018 0.42179
6 1 0.252039 0.0261622 0.36585
7 1 0.103054 0.582889 0.822529
8 1 0.733618 0.0492621 0.195689
9 1 0.0856224 0.501743 0.74701
10 1 0.799429 0.00287279 0.617612
11 1 0.757124 0.461209 0.70084
12 1 0.232688 0.074718 0.513082
13 1 0.865672 0.0746102 0.22087
14 1 0.411056 0.305405 0.19127
15 1 0.42979 0.980851 0.564636
16 1 0.446099 0.0183919 0.222279
ITEM: TIMESTEP
32
ITEM: NUMBER OF ATOMS
16
ITEM: BOX BOUNDS ff ff ff
-5.0000000000000000e+00 5.0000000000000000e+00
-5.0000000000000000e+00 5.0000000000000000e+00
-5.0000000000000000e+00 5.0000000000000000e+00
ITEM: ATOMS id type xs ys zs
1 1 0.722585 0.379694 0.76824
2 1 0.246608 0.131565 0.41175
3 1 0.0991172 0.35515 0.259757
4 1 0.612941 0.960062 0.176418
5 1 0.160009 0.0656179 0.421239
6 1 0.252677 0.0269531 0.372346
7 1 0.10306 0.582893 0.82253
8 1 0.743054 0.0511556 0.197693
9 1 0.0856286 0.501721 0.746986
10 1 0.799416 0.00291527 0.617573
11 1 0.757504 0.462101 0.700086
12 1 0.234261 0.0718296 0.505939
13 1 0.855672 0.0726818 0.218975
14 1 0.410877 0.304984 0.191473
15 1 0.429797 0.980844 0.56462
16 1 0.44544 0.0189044 0.223047
ITEM: TIMESTEP
33
ITEM: NUMBER OF ATOMS
16
ITEM: BOX BOUNDS ff ff ff
-5.0000000000000000e+00 5.0000000000000000e+00
-5.0000000000000000e+00 5.0000000000000000e+00
-5.0000000000000000e+00 5.0000000000000000e+00
ITEM: ATOMS id type xs ys zs
1 1 0.722561 0.37963 0.768282
2 1 0.248802 0.13388 0.411539
3 1 0.0991923 0.35507 0.259795
4 1 0.612939 0.960062 0.176423
5 1 0.157478 0.0642359 0.421893
6 1 0.252988 0.027412 0.375399
7 1 0.103061 0.582893 0.822529
8 1 0.747266 0.0519824 0.198542
9 1 0.0856306 0.501717 0.746981
10 1 0.799412 0.00292706 0.617562
11 1 0.757527 0.462154 0.700037
12 1 0.234599 0.0705092 0.502125
13 1 0.85132 0.0718466 0.218154
14 1 0.410827 0.304866 0.19153
15 1 0.429799 0.980843 0.564616
16 1 0.445245 0.0190451 0.223264
ITEM: TIMESTEP
34
ITEM: NUMBER OF ATOMS
16
ITEM: BOX BOUNDS ff ff ff
-5.0000000000000000e+00 5.0000000000000000e+00
-5.0000000000000000e+00 5.0000000000000000e+00
-5.0000000000000000e+00 5.0000000000000000e+00
ITEM: ATOMS id type xs ys zs
1 1 0.722658 0.379858 0.768092
2 1 0.247435 0.132955 0.411063
3 1 0.0992111 0.355049 0.259805
4 1 0.612938 0.960062 0.176425
5 1 0.158607 0.0652791 0.421174
6 1 0.252534 0.0285372 0.378065
7 1 0.10306 0.582888 0.822524
8 1 0.741854 0.0509516 0.197528
9 1 0.0856321 0.50172 0.746984
10 1 0.799411 0.00292979 0.61756
11 1 0.757429 0.461924 0.700226
12 1 0.235358 0.0692849 0.500576
13 1 0.856714 0.0728765 0.219173
14 1 0.410814 0.304838 0.191544
15 1 0.429799 0.980842 0.564615
16 1 0.44519 0.0190768 0.223317
ITEM: TIMESTEP
35
ITEM: NUMBER OF ATOMS
16
ITEM: BOX BOUNDS ff ff ff
-5.0000000000000000e+00 5.0000000000000000e+00
-5.0000000000000000e+00 5.0000000000000000e+00
-5.0000000000000000e+00 5.0000000000000000e+00
ITEM: ATOMS id type xs ys zs
1 1 0.722702 0.379958 0.768005
2 1 0.246329 0.134846 0.410224
3 1 0.099242 0.355014 0.259822
4 1 0.612937 0.960062 0.176427
5 1 0.156987 0.0667859 0.420421
6 1 0.25365 0.0276692 0.381235
7 1 0.10306 0.582886 0.822522
8 1 0.739186 0.0504461 0.197035
9 1 0.0856333 0.501721 0.746985
10 1 0.799409 0.00293428 0.617555
11 1 0.757385 0.46182 0.700311
12 1 0.237077 0.0667869 0.498871
13 1 0.859351 0.0733805 0.219674
14 1 0.410793 0.304792 0.191568
15 1 0.4298 0.980842 0.564613
16 1 0.445104 0.0191291 0.223404
ITEM: TIMESTEP
36
ITEM: NUMBER OF ATOMS
16
ITEM: BOX BOUNDS ff ff ff
-5.0000000000000000e+00 5.0000000000000000e+00
-5.0000000000000000e+00 5.0000000000000000e+00
-5.0000000000000000e+00 5.0000000000000000e+00
ITEM: ATOMS id type xs ys zs
1 1 0.722604 0.379727 0.768194
2 1 0.245836 0.135711 0.410207
3 1 0.099263 0.35499 0.259834
4 1 0.612937 0.960062 0.176428
5 1 0.156372 0.0674719 0.420395
6 1 0.254093 0.027484 0.383939
7 1 0.103061 0.582889 0.822525
8 1 0.741295 0.0508514 0.197439
9 1 0.0856331 0.501717 0.74698
10 1 0.799408 0.0029373 0.617552
11 1 0.757482 0.462049 0.70012
12 1 0.237811 0.065444 0.496127
13 1 0.85722 0.0729741 0.219275
14 1 0.410779 0.30476 0.191583
15 1 0.4298 0.980841 0.564612
16 1 0.44505 0.0191642 0.223461
ITEM: TIMESTEP
37
ITEM: NUMBER OF ATOMS
16
ITEM: BOX BOUNDS ff ff ff
-5.0000000000000000e+00 5.0000000000000000e+00
-5.0000000000000000e+00 5.0000000000000000e+00
-5.0000000000000000e+00 5.0000000000000000e+00
ITEM: ATOMS id type xs ys zs
1 1 0.722652 0.379838 0.768099
2 1 0.245213 0.13677 0.409408
3 1 0.0992931 0.354956 0.259851
4 1 0.612936 0.960062 0.17643
5 1 0.155404 0.0682802 0.419587
6 1 0.254197 0.0280065 0.387913
7 1 0.103061 0.582887 0.822522
8 1 0.745944 0.0517427 0.198325
9 1 0.0856343 0.501717 0.746981
10 1 0.799407 0.00294155 0.617548
11 1 0.757434 0.461934 0.700214
12 1 0.239392 0.0630857 0.493642
13 1 0.85254 0.0720814 0.218397
14 1 0.41076 0.304716 0.191606
15 1 0.429801 0.98084 0.56461
16 1 0.444978 0.0192134 0.223539
ITEM: TIMESTEP
38
ITEM: NUMBER OF ATOMS
16
ITEM: BOX BOUNDS ff ff ff
-5.0000000000000000e+00 5.0000000000000000e+00
-5.0000000000000000e+00 5.0000000000000000e+00
-5.0000000000000000e+00 5.0000000000000000e+00
ITEM: ATOMS id type xs ys zs
1 1 0.722643 0.379814 0.768117
2 1 0.244856 0.137107 0.409328
3 1 0.0993048 0.354943 0.259858
4 1 0.612936 0.960061 0.17643
5 1 0.155193 0.0687044 0.419492
6 1 0.254523 0.0276649 0.388387
7 1 0.103062 0.582887 0.822522
8 1 0.746002 0.0517552 0.198339
9 1 0.0856345 0.501717 0.74698
10 1 0.799406 0.00294319 0.617546
11 1 0.757443 0.461957 0.700194
12 1 0.23967 0.062679 0.493298
13 1 0.852471 0.0720683 0.218385
14 1 0.410752 0.304699 0.191614
15 1 0.429801 0.98084 0.56461
16 1 0.44495 0.0192324 0.223568
ITEM: TIMESTEP
39
ITEM: NUMBER OF ATOMS
16
ITEM: BOX BOUNDS ff ff ff
-5.0000000000000000e+00 5.0000000000000000e+00
-5.0000000000000000e+00 5.0000000000000000e+00
-5.0000000000000000e+00 5.0000000000000000e+00
ITEM: ATOMS id type xs ys zs
1 1 0.722626 0.379774 0.768149
2 1 0.24452 0.137063 0.409399
3 1 0.0993159 0.35493 0.259865
4 1 0.612935 0.960061 0.176431
5 1 0.155361 0.0690227 0.419514
6 1 0.254761 0.027324 0.388067
7 1 0.103062 0.582887 0.822522
8 1 0.74503 0.051571 0.198159
9 1 0.0856347 0.501716 0.746979
10 1 0.799406 0.00294474 0.617545
11 1 0.757459 0.461995 0.700162
12 1 0.239631 0.0627578 0.493483
13 1 0.853433 0.072252 0.218568
14 1 0.410745 0.304683 0.191623
15 1 0.429802 0.98084 0.564609
16 1 0.444925 0.0192502 0.223596
ITEM: TIMESTEP
40
ITEM: NUMBER OF ATOMS
16
ITEM: BOX BOUNDS ff ff ff
-5.0000000000000000e+00 5.0000000000000000e+00