ITEM: TIMESTEP
0
ITEM: NUMBER OF ATOMS
23
ITEM: BOX BOUNDS ff ff ff
-5.0000000000000000e+00 5.0000000000000000e+00
-5.0000000000000000e+00 5.0000000000000000e+00
-5.0000000000000000e+00 5.0000000000000000e+00
ITEM: ATOMS id type xs ys zs
1 1 0.627018 0.287853 0.936979
2 1 0.810333 0.273101 0.00330654
3 1 0.573005 0.502242 0.179918
4 1 0.879104 0.100615 0.0337681
5 1 0.541094 0.170791 0.481484
6 1 0.29923 0.158213 0.0903814
7 1 0.0407886 0.533535 0.116964
8 1 0.821123 0.606343 0.811059
9 1 0.464526 0.282795 0.940786
10 1 0.782794 0.418023 0.705137
11 1 0.239943 0.721228 0.686433
12 1 0.878435 0.857167 0.400406
13 1 0.62357 0.346118 0.207778
14 1 0.1236 0.345069 0.570617
15 1 0.351903 0.437604 0.81392
16 1 0.54743 0.649499 0.136782
17 1 0.891543 0.158348 0.352977
18 1 0.483803 0.276576 0.411453
19 1 0.296691 0.488152 0.362562
20 1 0.575308 0.194426 0.722309
21 1 0.849894 0.171771 0.955733
22 1 0.00252433 0.426458 0.482626
23 1 0.494222 0.395102 0.481624
ITEM: TIMESTEP
1
ITEM: NUMBER OF ATOMS
23
ITEM: BOX BOUNDS ff ff ff
-5.0000000000000000e+00 5.0000000000000000e+00
-5.0000000000000000e+00 5.0000000000000000e+00
-5.0000000000000000e+00 5.0000000000000000e+00
ITEM: ATOMS id type xs ys zs
1 1 0.623064 0.287554 0.936764
2 1 0.810842 0.271685 0.00364528
3 1 0.573159 0.50397 0.179085
4 1 0.878521 0.102072 0.0335548
5 1 0.537003 0.178744 0.476755
6 1 0.299247 0.158233 0.0904029
7 1 0.0408067 0.533525 0.116991
8 1 0.821016 0.605855 0.810792
9 1 0.468495 0.283139 0.940314
10 1 0.782801 0.418412 0.705441
11 1 0.239954 0.721182 0.686432
12 1 0.878431 0.857161 0.400406
13 1 0.622418 0.349367 0.207345
14 1 0.121516 0.346556 0.569022
15 1 0.352127 0.437319 0.814091
16 1 0.548313 0.644368 0.138295
17 1 0.891501 0.158362 0.352933
18 1 0.488689 0.277982 0.421453
19 1 0.296903 0.487969 0.362706
20 1 0.575281 0.194666 0.722416
21 1 0.849681 0.171888 0.95569
22 1 0.00472676 0.42502 0.484173
23 1 0.493386 0.385999 0.476296
ITEM: TIMESTEP
2
ITEM: NUMBER OF ATOMS
23
ITEM: BOX BOUNDS ff ff ff
-5.0000000000000000e+00 5.0000000000000000e+00
-5.0000000000000000e+00 5.0000000000000000e+00
-5.0000000000000000e+00 5.0000000000000000e+00
ITEM: ATOMS id type xs ys zs
1 1 0.620351 0.287382 0.936655
2 1 0.811145 0.270854 0.00383889
3 1 0.573147 0.505447 0.178476
4 1 0.878179 0.102927 0.0334279
5 1 0.534259 0.184521 0.473725
6 1 0.299256 0.158244 0.0904142
7 1 0.0408166 0.53352 0.117005
8 1 0.820957 0.605584 0.810644
9 1 0.471213 0.283331 0.940046
10 1 0.782807 0.418629 0.705608
11 1 0.23996 0.721157 0.686432
12 1 0.878429 0.857158 0.400406
13 1 0.621776 0.35122 0.207086
14 1 0.12017 0.347507 0.568
15 1 0.352248 0.437169 0.814181
16 1 0.54891 0.640956 0.139293
17 1 0.891479 0.15837 0.352909
18 1 0.491734 0.278543 0.427641
19 1 0.297015 0.487869 0.362782
20 1 0.575264 0.194803 0.722491
21 1 0.849571 0.171948 0.955667
22 1 0.00613692 0.424096 0.485168
23 1 0.493059 0.379794 0.473103
ITEM: TIMESTEP
3
ITEM: NUMBER OF ATOMS
23
ITEM: BOX BOUNDS ff ff ff
-5.0000000000000000e+00 5.0000000000000000e+00
-5.0000000000000000e+00 5.0000000000000000e+00
-5.0000000000000000e+00 5.0000000000000000e+00
ITEM: ATOMS id type xs ys zs
1 1 0.616402 0.28717 0.936544
2 1 0.811523 0.269827 0.00407179
3 1 0.57297 0.508004 0.177535
4 1 0.877758 0.10398 0.0332695
5 1 0.533144 0.187278 0.472682
6 1 0.299266 0.158256 0.0904266
7 1 0.0408278 0.533515 0.117021
8 1 0.820888 0.60527 0.810472
9 1 0.475162 0.283561 0.939723
10 1 0.782816 0.418883 0.705802
11 1 0.239967 0.721128 0.686432
12 1 0.878426 0.857154 0.400407
13 1 0.621036 0.353402 0.20677
14 1 0.118337 0.34879 0.566619
15 1 0.352387 0.437003 0.81428
16 1 0.549766 0.636126 0.140697
17 1 0.891454 0.158379 0.352882
18 1 0.49282 0.27564 0.428452
19 1 0.297138 0.487755 0.362867
20 1 0.575243 0.19497 0.722596
21 1 0.849452 0.172012 0.955642
22 1 0.00804328 0.422842 0.486519
23 1 0.493058 0.380085 0.473293
ITEM: TIMESTEP
4
ITEM: NUMBER OF ATOMS
23
ITEM: BOX BOUNDS ff ff ff
-5.0000000000000000e+00 5.0000000000000000e+00
-5.0000000000000000e+00 5.0000000000000000e+00
-5.0000000000000000e+00 5.0000000000000000e+00
ITEM: ATOMS id type xs ys zs
1 1 0.608187 0.28674 0.936328
2 1 0.812288 0.26775 0.00454143
3 1 0.57255 0.513453 0.17556
4 1 0.876907 0.106108 0.0329487
5 1 0.53246 0.189432 0.472303
6 1 0.299286 0.15828 0.0904514
7 1 0.0408503 0.533504 0.117053
8 1 0.82075 0.604639 0.810127
9 1 0.483377 0.284024 0.93907
10 1 0.782834 0.419394 0.70619
11 1 0.23998 0.721071 0.686431
12 1 0.878421 0.857147 0.400407
13 1 0.619556 0.35777 0.206135
14 1 0.11457 0.351426 0.563782
15 1 0.352663 0.436671 0.814477
16 1 0.551544 0.626126 0.143601
17 1 0.891403 0.158397 0.352827
18 1 0.493433 0.273805 0.428606
19 1 0.297383 0.487527 0.363035
20 1 0.5752 0.195304 0.72281
21 1 0.849217 0.172139 0.955591
22 1 0.0119573 0.420268 0.489294
23 1 0.493066 0.380053 0.473432
ITEM: TIMESTEP
5
ITEM: NUMBER OF ATOMS
23
ITEM: BOX BOUNDS ff ff ff
-5.0000000000000000e+00 5.0000000000000000e+00
-5.0000000000000000e+00 5.0000000000000000e+00
-5.0000000000000000e+00 5.0000000000000000e+00
ITEM: ATOMS id type xs ys zs
1 1 0.6033 0.28649 0.936205
2 1 0.812735 0.266539 0.00481469
3 1 0.572293 0.516672 0.1744
4 1 0.87641 0.10735 0.0327614
5 1 0.532653 0.18941 0.472745
6 1 0.299298 0.158294 0.0904657
7 1 0.0408633 0.533497 0.117071
8 1 0.82067 0.604273 0.809927
9 1 0.488263 0.284293 0.938689
10 1 0.782844 0.41969 0.706415
11 1 0.239988 0.721038 0.68643
12 1 0.878418 0.857143 0.400407
13 1 0.618702 0.360295 0.205767
14 1 0.112338 0.352985 0.562103
15 1 0.352823 0.436481 0.81459
16 1 0.552586 0.620275 0.145299
17 1 0.891375 0.158408 0.352795
18 1 0.493196 0.274167 0.428095
19 1 0.297525 0.487396 0.363133
20 1 0.575174 0.195498 0.722935
21 1 0.849081 0.172212 0.955562
22 1 0.0142739 0.418743 0.490938
23 1 0.493073 0.37988 0.473451
ITEM: TIMESTEP
6
ITEM: NUMBER OF ATOMS
23
ITEM: BOX BOUNDS ff ff ff
-5.0000000000000000e+00 5.0000000000000000e+00
-5.0000000000000000e+00 5.0000000000000000e+00
-5.0000000000000000e+00 5.0000000000000000e+00
ITEM: ATOMS id type xs ys zs
1 1 0.602907 0.286474 0.936193
2 1 0.812786 0.266405 0.00484238
3 1 0.572468 0.515844 0.174621
4 1 0.876356 0.107486 0.0327399
5 1 0.534039 0.186479 0.474336
6 1 0.299299 0.158296 0.0904668
7 1 0.0408643 0.533497 0.117072
8 1 0.820663 0.604242 0.80991
9 1 0.488655 0.284307 0.93866
10 1 0.782845 0.419716 0.706433
11 1 0.239988 0.721035 0.68643
12 1 0.878418 0.857143 0.400407
13 1 0.618642 0.360482 0.205737
14 1 0.111936 0.353259 0.561807
15 1 0.352835 0.436469 0.814597
16 1 0.552465 0.620909 0.145122
17 1 0.891372 0.158409 0.352793
18 1 0.4918 0.277534 0.426663
19 1 0.297535 0.487385 0.363141
20 1 0.575171 0.195516 0.72295
21 1 0.849073 0.172216 0.95556
22 1 0.0146826 0.418472 0.491231
23 1 0.49308 0.379457 0.473289
ITEM: TIMESTEP
7
ITEM: NUMBER OF ATOMS
23
ITEM: BOX BOUNDS ff ff ff
-5.0000000000000000e+00 5.0000000000000000e+00
-5.0000000000000000e+00 5.0000000000000000e+00
-5.0000000000000000e+00 5.0000000000000000e+00
ITEM: ATOMS id type xs ys zs
1 1 0.599794 0.28633 0.936049
2 1 0.813316 0.26502 0.00512791
3 1 0.573532 0.51126 0.175772
4 1 0.875791 0.108895 0.0325173
5 1 0.534814 0.185234 0.47543
6 1 0.299308 0.158307 0.0904781
7 1 0.0408748 0.533491 0.117086
8 1 0.820594 0.603925 0.809736
9 1 0.491759 0.284432 0.938381
10 1 0.782861 0.41998 0.706623
11 1 0.239994 0.721009 0.68643
12 1 0.878415 0.85714 0.400408
13 1 0.618005 0.362472 0.205417
14 1 0.107673 0.356165 0.558667
15 1 0.352957 0.436345 0.814665
16 1 0.551982 0.623419 0.144423
17 1 0.89135 0.158417 0.352768
18 1 0.490931 0.279224 0.425486
19 1 0.297647 0.487279 0.363219
20 1 0.575137 0.19569 0.723099
21 1 0.848993 0.172257 0.955539
22 1 0.0190141 0.415594 0.494342
23 1 0.493139 0.379144 0.473338
ITEM: TIMESTEP
8
ITEM: NUMBER OF ATOMS
23
ITEM: BOX BOUNDS ff ff ff
-5.0000000000000000e+00 5.0000000000000000e+00
-5.0000000000000000e+00 5.0000000000000000e+00
-5.0000000000000000e+00 5.0000000000000000e+00
ITEM: ATOMS id type xs ys zs
1 1 0.599662 0.286232 0.935821
2 1 0.813909 0.26347 0.0054459
3 1 0.574358 0.50808 0.176508
4 1 0.87516 0.11047 0.0322679
5 1 0.535116 0.185038 0.476006
6 1 0.299318 0.158319 0.0904904
7 1 0.0408862 0.533486 0.117102
8 1 0.820518 0.603578 0.809546
9 1 0.491881 0.284508 0.938146
10 1 0.782878 0.42027 0.70683
11 1 0.24 0.720981 0.686429
12 1 0.878413 0.857136 0.400408
13 1 0.617269 0.364779 0.205042
14 1 0.102748 0.359518 0.555042
15 1 0.353091 0.436212 0.814738
16 1 0.55183 0.624201 0.144208
17 1 0.891327 0.158425 0.352741
18 1 0.490514 0.279349 0.424553
19 1 0.297768 0.487163 0.363305
20 1 0.5751 0.195882 0.723263
21 1 0.848905 0.172302 0.955517
22 1 0.0240141 0.412271 0.497934
23 1 0.493216 0.379361 0.473658
ITEM: TIMESTEP
9
ITEM: NUMBER OF ATOMS
23
ITEM: BOX BOUNDS ff ff ff
-5.0000000000000000e+00 5.0000000000000000e+00
-5.0000000000000000e+00 5.0000000000000000e+00
-5.0000000000000000e+00 5.0000000000000000e+00
ITEM: ATOMS id type xs ys zs
1 1 0.604427 0.286237 0.935543
2 1 0.814408 0.262174 0.0057069
3 1 0.57451 0.508355 0.176285
4 1 0.874634 0.111784 0.0320575
5 1 0.534432 0.186817 0.475392
6 1 0.299325 0.158328 0.0904996
7 1 0.0408948 0.533482 0.117113
8 1 0.82046 0.603312 0.809401
9 1 0.487108 0.284484 0.938074
10 1 0.782892 0.420492 0.706988
11 1 0.240005 0.72096 0.686428
12 1 0.878411 0.857133 0.400408
13 1 0.616585 0.366941 0.204676
14 1 0.101744 0.36023 0.554274
15 1 0.353191 0.436113 0.814793
16 1 0.552315 0.621694 0.144908
17 1 0.891309 0.158432 0.35272
18 1 0.491104 0.277258 0.424772
19 1 0.297858 0.487075 0.36337
20 1 0.575071 0.196027 0.72339
21 1 0.848841 0.172335 0.9555
22 1 0.0250747 0.411582 0.498676
23 1 0.493281 0.379784 0.474027
ITEM: TIMESTEP
10
ITEM: NUMBER OF ATOMS
23
ITEM: BOX BOUNDS ff ff ff
-5.0000000000000000e+00 5.0000000000000000e+00
-5.0000000000000000e+00 5.0000000000000000e+00
-5.0000000000000000e+00 5.0000000000000000e+00
ITEM: ATOMS id type xs ys zs
1 1 0.60581 0.286198 0.93536
2 1 0.814882 0.260948 0.00595093
3 1 0.574531 0.509267 0.175889
4 1 0.874136 0.113027 0.0318572
5 1 0.533992 0.188043 0.475039
6 1 0.299331 0.158336 0.0905077
7 1 0.0409023 0.533478 0.117123
8 1 0.820409 0.603077 0.809272
9 1 0.485718 0.284508 0.93795
10 1 0.782905 0.420689 0.707128
11 1 0.240009 0.720941 0.686428
12 1 0.878409 0.857131 0.400408
13 1 0.615926 0.369039 0.204313
14 1 0.103342 0.359193 0.555399
15 1 0.35328 0.436024 0.814842
16 1 0.552911 0.618624 0.145764
17 1 0.891293 0.158438 0.352702
18 1 0.491478 0.276541 0.425154
19 1 0.297937 0.486998 0.363427
20 1 0.575047 0.196153 0.7235
21 1 0.848784 0.172365 0.955485
22 1 0.0235262 0.412639 0.497529
23 1 0.493322 0.379372 0.473974
ITEM: TIMESTEP
11
ITEM: NUMBER OF ATOMS
23
ITEM: BOX BOUNDS ff ff ff
-5.0000000000000000e+00 5.0000000000000000e+00
-5.0000000000000000e+00 5.0000000000000000e+00
-5.0000000000000000e+00 5.0000000000000000e+00
ITEM: ATOMS id type xs ys zs
1 1 0.601595 0.286064 0.935266
2 1 0.815575 0.259171 0.00629526
3 1 0.57469 0.509861 0.175527
4 1 0.873416 0.114823 0.0315637
5 1 0.534983 0.186364 0.476401
6 1 0.299339 0.158345 0.0905174
7 1 0.0409113 0.533474 0.117134
8 1 0.820346 0.602787 0.809113
9 1 0.489922 0.284629 0.937671
10 1 0.782923 0.420934 0.707302
11 1 0.240014 0.720919 0.686427
12 1 0.878407 0.857128 0.400408
13 1 0.614997 0.372046 0.203772
14 1 0.103927 0.358841 0.555782
15 1 0.35339 0.435912 0.814906
16 1 0.553632 0.614949 0.146782
17 1 0.891275 0.158444 0.352681
18 1 0.49043 0.280343 0.424535
19 1 0.298031 0.486905 0.363495
20 1 0.575019 0.196305 0.723633
21 1 0.848712 0.172402 0.955467
22 1 0.0230012 0.413015 0.497119
23 1 0.493348 0.377365 0.473204
ITEM: TIMESTEP
12
ITEM: NUMBER OF ATOMS
23
ITEM: BOX BOUNDS ff ff ff
-5.0000000000000000e+00 5.0000000000000000e+00
-5.0000000000000000e+00 5.0000000000000000e+00
-5.0000000000000000e+00 5.0000000000000000e+00
ITEM: ATOMS id type xs ys zs
1 1 0.600804 0.286033 0.935233
2 1 0.815771 0.258669 0.0063919
3 1 0.574816 0.509611 0.175541
4 1 0.873213 0.11533 0.0314806
5 1 0.535066 0.186295 0.476554
6 1 0.299341 0.158348 0.09052
7 1 0.0409138 0.533473 0.117137
8 1 0.820329 0.602709 0.80907
9 1 0.49071 0.284657 0.937604
10 1 0.782927 0.421 0.707348
11 1 0.240015 0.720913 0.686427
12 1 0.878407 0.857127 0.400408
13 1 0.61474 0.372883 0.20362
14 1 0.103954 0.358833 0.555791
15 1 0.353419 0.435883 0.814923
16 1 0.55375 0.614343 0.146951
17 1 0.89127 0.158446 0.352675
18 1 0.490314 0.280402 0.424293
19 1 0.298056 0.486881 0.363513
20 1 0.575012 0.196346 0.723669
21 1 0.848693 0.172411 0.955462
22 1 0.02299 0.413029 0.497103
23 1 0.493372 0.377406 0.473287
ITEM: TIMESTEP
13
ITEM: NUMBER OF ATOMS
23
ITEM: BOX BOUNDS ff ff ff
-5.0000000000000000e+00 5.0000000000000000e+00
-5.0000000000000000e+00 5.0000000000000000e+00
-5.0000000000000000e+00 5.0000000000000000e+00
ITEM: ATOMS id type xs ys zs
1 1 0.6019 0.286002 0.935097
2 1 0.816271 0.257394 0.00663397
3 1 0.575561 0.506798 0.176181
4 1 0.872697 0.116617 0.0312678
5 1 0.534372 0.187984 0.475864
6 1 0.299345 0.158354 0.0905257
7 1 0.0409191 0.53347 0.117144
8 1 0.82029 0.602532 0.808973
9 1 0.489609 0.284677 0.937516
10 1 0.782939 0.42115 0.707453
11 1 0.240018 0.7209 0.686427
12 1 0.878406 0.857126 0.400409
13 1 0.61411 0.374955 0.203235
14 1 0.103398 0.359229 0.555364
15 1 0.353483 0.435819 0.814959
16 1 0.553605 0.615041 0.146765
17 1 0.891259 0.15845 0.352662
18 1 0.49086 0.276157 0.423514
19 1 0.298112 0.486825 0.363553
20 1 0.574994 0.196438 0.723752
21 1 0.848653 0.172432 0.955452
22 1 0.0235819 0.412648 0.497514
23 1 0.493501 0.380033 0.474741
ITEM: TIMESTEP
14
ITEM: NUMBER OF ATOMS
23
ITEM: BOX BOUNDS ff ff ff
-5.0000000000000000e+00 5.0000000000000000e+00
-5.0000000000000000e+00 5.0000000000000000e+00
-5.0000000000000000e+00 5.0000000000000000e+00
ITEM: ATOMS id type xs ys zs
1 1 0.60364 0.285835 0.934586
2 1 0.818596 0.251489 0.00774408
3 1 0.577927 0.499281 0.177618
4 1 0.87031 0.122568 0.0302784
5 1 0.533874 0.190034 0.475814
6 1 0.299364 0.158378 0.0905497
7 1 0.0409414 0.53346 0.117172
8 1 0.820127 0.601783 0.808562
9 1 0.487842 0.284797 0.937084
10 1 0.782988 0.421787 0.707897
11 1 0.24003 0.720845 0.686425
12 1 0.878401 0.857119 0.400409
13 1 0.611087 0.384955 0.201347
14 1 0.102704 0.359791 0.55476
15 1 0.353755 0.435549 0.81511
16 1 0.554135 0.612376 0.147502
17 1 0.891215 0.158467 0.352609
18 1 0.491112 0.276011 0.423751
19 1 0.298346 0.486594 0.363722
20 1 0.574919 0.196824 0.724105
21 1 0.848482 0.17252 0.955407
22 1 0.0244237 0.412145 0.498051
23 1 0.493662 0.378424 0.474497
ITEM: TIMESTEP
15
ITEM: NUMBER OF ATOMS
23
ITEM: BOX BOUNDS ff ff ff
-5.0000000000000000e+00 5.0000000000000000e+00
-5.0000000000000000e+00 5.0000000000000000e+00
-5.0000000000000000e+00 5.0000000000000000e+00
ITEM: ATOMS id type xs ys zs
1 1 0.603199 0.285763 0.93442
2 1 0.819612 0.248918 0.00822132
3 1 0.578707 0.497106 0.177966
4 1 0.869272 0.125156 0.0298447
5 1 0.534277 0.18961 0.476509
6 1 0.299371 0.158386 0.0905585
7 1 0.0409496 0.533456 0.117183
8 1 0.820066 0.601503 0.808409
9 1 0.488272 0.284852 0.9369
10 1 0.783007 0.422025 0.708063
11 1 0.240035 0.720824 0.686424
12 1 0.878399 0.857116 0.400409
13 1 0.609839 0.389115 0.20055
14 1 0.103259 0.359456 0.555125
15 1 0.353857 0.435448 0.815167
16 1 0.554558 0.610323 0.148057
17 1 0.891198 0.158473 0.35259
18 1 0.490631 0.277674 0.423391
19 1 0.298432 0.486509 0.363784
20 1 0.574891 0.196967 0.724237
21 1 0.848419 0.172552 0.955391
22 1 0.0239234 0.412502 0.497661
23 1 0.493708 0.377292 0.474141
ITEM: TIMESTEP
16
ITEM: NUMBER OF ATOMS
23
ITEM: BOX BOUNDS ff ff ff
-5.0000000000000000e+00 5.0000000000000000e+00
-5.0000000000000000e+00 5.0000000000000000e+00
-5.0000000000000000e+00 5.0000000000000000e+00
ITEM: ATOMS id type xs ys zs
1 1 0.600248 0.28567 0.934307
2 1 0.821374 0.244499 0.00901652
3 1 0.578347 0.499603 0.177188
4 1 0.867492 0.129589 0.0290886
5 1 0.534476 0.18959 0.476955
6 1 0.299377 0.158395 0.0905671
7 1 0.0409575 0.533452 0.117193
8 1 0.820002 0.601212 0.808249
9 1 0.491211 0.284931 0.936662
10 1 0.78303 0.422276 0.708235
11 1 0.240039 0.720805 0.686423
12 1 0.878397 0.857114 0.400409
13 1 0.609044 0.391764 0.200049
14 1 0.104208 0.358856 0.555776
15 1 0.353958 0.435346 0.815226
16 1 0.555667 0.605112 0.149438
17 1 0.891183 0.158479 0.35257
18 1 0.490316 0.27781 0.422716
19 1 0.298516 0.486425 0.363843
20 1 0.574864 0.19711 0.724372
21 1 0.848356 0.172584 0.955375
22 1 0.0230277 0.413123 0.496986
23 1 0.493791 0.377283 0.474357
ITEM: TIMESTEP
17
ITEM: NUMBER OF ATOMS
23
ITEM: BOX BOUNDS ff ff ff
-5.0000000000000000e+00 5.0000000000000000e+00
-5.0000000000000000e+00 5.0000000000000000e+00
-5.0000000000000000e+00 5.0000000000000000e+00
ITEM: ATOMS id type xs ys zs
1 1 0.600975 0.285598 0.934103
2 1 0.823406 0.239406 0.00993044
3 1 0.578508 0.499664 0.177053
4 1 0.865442 0.134698 0.0282156
5 1 0.53448 0.189983 0.477175
6 1 0.299384 0.158404 0.0905762
7 1 0.040966 0.533448 0.117204
8 1 0.819934 0.600901 0.808078
9 1 0.490472 0.284983 0.936493
10 1 0.783055 0.422545 0.708419
11 1 0.240043 0.720784 0.686423
12 1 0.878395 0.857111 0.40041
13 1 0.608222 0.394513 0.199527
14 1 0.10419 0.358905 0.555725
15 1 0.354066 0.435239 0.815286
16 1 0.556278 0.602232 0.150203
17 1 0.891167 0.158486 0.35255
18 1 0.490192 0.277703 0.422334
19 1 0.298606 0.486337 0.363907
20 1 0.574835 0.197262 0.724517
21 1 0.848291 0.172618 0.955358
22 1 0.0231017 0.413097 0.497012
23 1 0.493874 0.377111 0.474504
ITEM: TIMESTEP
18
ITEM: NUMBER OF ATOMS
23
ITEM: BOX BOUNDS ff ff ff
-5.0000000000000000e+00 5.0000000000000000e+00
-5.0000000000000000e+00 5.0000000000000000e+00
-5.0000000000000000e+00 5.0000000000000000e+00
ITEM: ATOMS id type xs ys zs
1 1 0.601711 0.285577 0.934023
2 1 0.82386 0.238267 0.0101372
3 1 0.578834 0.49818 0.177442
4 1 0.864982 0.135842 0.0280223
5 1 0.534421 0.190238 0.477178
6 1 0.299387 0.158407 0.0905793
7 1 0.0409688 0.533446 0.117208
8 1 0.819911 0.600793 0.808019
9 1 0.489731 0.284998 0.936445
10 1 0.783063 0.422638 0.708482
11 1 0.240045 0.720777 0.686423
12 1 0.878395 0.85711 0.40041
13 1 0.608161 0.394685 0.19951
14 1 0.103885 0.359121 0.555491
15 1 0.354102 0.435203 0.815306
16 1 0.555997 0.603521 0.149867
17 1 0.891161 0.158488 0.352543
18 1 0.490212 0.277654 0.422332
19 1 0.298636 0.486306 0.363928
20 1 0.574825 0.197314 0.724568
21 1 0.848269 0.172629 0.955352
22 1 0.0234261 0.412888 0.497237
23 1 0.493899 0.376944 0.474499
ITEM: TIMESTEP
19
ITEM: NUMBER OF ATOMS
23
ITEM: BOX BOUNDS ff ff ff
-5.0000000000000000e+00 5.0000000000000000e+00
-5.0000000000000000e+00 5.0000000000000000e+00
-5.0000000000000000e+00 5.0000000000000000e+00
ITEM: ATOMS id type xs ys zs
1 1 0.602316 0.285527 0.933873
2 1 0.823968 0.237979 0.0102033
3 1 0.578532 0.498832 0.177394
4 1 0.864862 0.13614 0.0279841
5 1 0.534321 0.190731 0.477213
6 1 0.299392 0.158414 0.0905858
7 1 0.0409748 0.533443 0.117215
8 1 0.819861 0.600563 0.807893
9 1 0.489117 0.285034 0.936325
10 1 0.783083 0.422838 0.708617
11 1 0.240048 0.720762 0.686422
12 1 0.878393 0.857108 0.40041
13 1 0.608729 0.3926 0.199994
14 1 0.103366 0.359495 0.555088
15 1 0.35418 0.435126 0.81535
16 1 0.555696 0.604905 0.149508
17 1 0.89115 0.158493 0.352528
18 1 0.490231 0.277624 0.422309
19 1 0.2987 0.486243 0.363973
20 1 0.574804 0.197424 0.724676
21 1 0.848222 0.172653 0.95534
22 1 0.0239854 0.412531 0.497622
23 1 0.493953 0.376562 0.474479
ITEM: TIMESTEP
20
ITEM: NUMBER OF ATOMS
23
ITEM: BOX BOUNDS ff ff ff
-5.0000000000000000e+00 5.0000000000000000e+00
-5.0000000000000000e+00 5.0000000000000000e+00
-5.0000000000000000e+00 5.0000000000000000e+00
ITEM: ATOMS id type xs ys zs
1 1 0.602208 0.285497 0.9338
2 1 0.823862 0.238235 0.0101675
3 1 0.578501 0.498804 0.177432
4 1 0.864962 0.13589 0.0280353
5 1 0.534321 0.190898 0.477301
6 1 0.299394 0.158418 0.0905893
7 1 0.0409781 0.533442 0.117219
8 1 0.819833 0.600436 0.807823
9 1 0.489218 0.285056 0.936249
10 1 0.783094 0.422948 0.708692
11 1 0.24005 0.720754 0.686422
12 1 0.878393 0.857107 0.40041
13 1 0.608824 0.392218 0.200097
14 1 0.103427 0.359469 0.555117
15 1 0.354223 0.435084 0.815374
16 1 0.555612 0.605288 0.149409
17 1 0.891143 0.158496 0.35252
18 1 0.490183 0.277633 0.422184
19 1 0.298735 0.486208 0.363997
20 1 0.574792 0.197485 0.724735
21 1 0.848197 0.172666 0.955333
22 1 0.0239467 0.412566 0.497583
23 1 0.493987 0.376431 0.474511
ITEM: TIMESTEP
21
ITEM: NUMBER OF ATOMS
23
ITEM: BOX BOUNDS ff ff ff
-5.0000000000000000e+00 5.0000000000000000e+00
-5.0000000000000000e+00 5.0000000000000000e+00
-5.0000000000000000e+00 5.0000000000000000e+00
ITEM: ATOMS id type xs ys zs
1 1 0.601728 0.285461 0.933722
2 1 0.823718 0.238581 0.0101172
3 1 0.578611 0.498419 0.177518
4 1 0.865098 0.13555 0.0281036
5 1 0.534377 0.190986 0.477478
6 1 0.299398 0.158422 0.0905935
7 1 0.0409819 0.53344 0.117224
8 1 0.8198 0.600283 0.80774
9 1 0.489692 0.285084 0.936152
10 1 0.783107 0.423081 0.708782
11 1 0.240052 0.720745 0.686421
12 1 0.878392 0.857106 0.40041
13 1 0.608642 0.392804 0.199998
14 1 0.103797 0.359239 0.555367
15 1 0.354273 0.435033 0.815403
16 1 0.555661 0.605055 0.149472
17 1 0.891136 0.158499 0.352511
18 1 0.490062 0.27764 0.421898
19 1 0.298776 0.486167 0.364026
20 1 0.574778 0.197556 0.724805
21 1 0.848166 0.172682 0.955325
22 1 0.0236029 0.412806 0.497321
23 1 0.494033 0.376389 0.474614
ITEM: TIMESTEP
22
ITEM: NUMBER OF ATOMS
23
ITEM: BOX BOUNDS ff ff ff
-5.0000000000000000e+00 5.0000000000000000e+00
-5.0000000000000000e+00 5.0000000000000000e+00
-5.0000000000000000e+00 5.0000000000000000e+00
ITEM: ATOMS id type xs ys zs
1 1 0.601573 0.285367 0.933489
2 1 0.823689 0.238625 0.0101367
3 1 0.578542 0.498704 0.17746
4 1 0.865108 0.135524 0.0281317
5 1 0.534405 0.19146 0.477797
6 1 0.299406 0.158433 0.0906046
7 1 0.0409921 0.533435 0.117237
8 1 0.819711 0.599876 0.807516
9 1 0.489829 0.285154 0.935918
10 1 0.783143 0.423436 0.709021
11 1 0.240057 0.72072 0.68642
12 1 0.87839 0.857103 0.40041
13 1 0.608479 0.393234 0.199975
14 1 0.103867 0.359237 0.555371
15 1 0.354407 0.4349 0.815478
16 1 0.555831 0.604257 0.149686
17 1 0.891116 0.158507 0.352485
18 1 0.489871 0.277588 0.42138
19 1 0.298884 0.486059 0.364101
20 1 0.574742 0.197746 0.724994
21 1 0.848087 0.172722 0.955304
22 1 0.0236015 0.412835 0.497287
23 1 0.494152 0.376107 0.474799
ITEM: TIMESTEP
23
ITEM: NUMBER OF ATOMS
23
ITEM: BOX BOUNDS ff ff ff
-5.0000000000000000e+00 5.0000000000000000e+00
-5.0000000000000000e+00 5.0000000000000000e+00
-5.0000000000000000e+00 5.0000000000000000e+00
ITEM: ATOMS id type xs ys zs
1 1 0.601955 0.285198 0.933044
2 1 0.823766 0.238377 0.0102297
3 1 0.578535 0.498521 0.177563
4 1 0.864994 0.135804 0.0281262
5 1 0.534374 0.192499 0.478281
6 1 0.299421 0.158454 0.0906249
7 1 0.0410107 0.533426 0.117261
8 1 0.819547 0.599122 0.807103
9 1 0.489414 0.285279 0.935502
10 1 0.783211 0.424095 0.709463
11 1 0.240067 0.720674 0.686419
12 1 0.878386 0.857097 0.400411
13 1 0.608319 0.393537 0.200035
14 1 0.103671 0.35945 0.555144
15 1 0.354654 0.434655 0.815618
16 1 0.555886 0.603984 0.149765
17 1 0.891079 0.158523 0.352439
18 1 0.489606 0.277528 0.42063
19 1 0.299083 0.48586 0.36424
20 1 0.574675 0.198096 0.725343
21 1 0.847941 0.172797 0.955265
22 1 0.0239229 0.412672 0.497457
23 1 0.494365 0.375383 0.475038
ITEM: TIMESTEP
24
ITEM: NUMBER OF ATOMS
23
ITEM: BOX BOUNDS ff ff ff
-5.0000000000000000e+00 5.0000000000000000e+00
-5.0000000000000000e+00 5.0000000000000000e+00
-5.0000000000000000e+00 5.0000000000000000e+00
ITEM: ATOMS id type xs ys zs
1 1 0.601794 0.283958 0.929861
2 1 0.823408 0.238879 0.010501
3 1 0.57806 0.497265 0.17858
4 1 0.865089 0.13553 0.0284866
5 1 0.534091 0.200302 0.481806
6 1 0.299533 0.158602 0.0907723
7 1 0.0411454 0.533361 0.117434
8 1 0.818331 0.593536 0.80404
9 1 0.489324 0.286196 0.932404
10 1 0.783732 0.428991 0.712734
11 1 0.240138 0.720342 0.686406
12 1 0.878357 0.857053 0.400415
13 1 0.608809 0.389919 0.201717
14 1 0.104674 0.359379 0.555248
15 1 0.356453 0.432863 0.816636
16 1 0.555055 0.607747 0.148826
17 1 0.890816 0.158633 0.352105
18 1 0.487683 0.277349 0.415286
19 1 0.300519 0.484421 0.365243
20 1 0.574186 0.200645 0.727912
21 1 0.846881 0.173338 0.954986
22 1 0.0238308 0.413106 0.496941
23 1 0.495971 0.36961 0.476664
ITEM: TIMESTEP
25
ITEM: NUMBER OF ATOMS
23
ITEM: BOX BOUNDS ff ff ff
-5.0000000000000000e+00 5.0000000000000000e+00
-5.0000000000000000e+00 5.0000000000000000e+00
-5.0000000000000000e+00 5.0000000000000000e+00
ITEM: ATOMS id type xs ys zs
1 1 0.601378 0.282393 0.925834
2 1 0.82315 0.23903 0.0109264
3 1 0.577319 0.496905 0.179454
4 1 0.865016 0.135668 0.0288564
5 1 0.533741 0.210302 0.486345
6 1 0.299674 0.158789 0.0909578
7 1 0.0413147 0.533278 0.117651
8 1 0.816775 0.586389 0.800122
9 1 0.489417 0.287351 0.928482
10 1 0.784414 0.435271 0.716915
11 1 0.240227 0.719925 0.68639
12 1 0.87832 0.856999 0.400419
13 1 0.609013 0.386792 0.203529
14 1 0.105367 0.359667 0.554968
15 1 0.358729 0.430598 0.817925
16 1 0.554561 0.609833 0.148358
17 1 0.890486 0.158773 0.351683
18 1 0.485117 0.276508 0.407934
19 1 0.302324 0.482609 0.366503
20 1 0.57357 0.203869 0.73118
21 1 0.845547 0.17402 0.954633
22 1 0.0242837 0.413275 0.496702
23 1 0.498138 0.362785 0.479233
ITEM: TIMESTEP
26
ITEM: NUMBER OF ATOMS
23
ITEM: BOX BOUNDS ff ff ff
-5.0000000000000000e+00 5.0000000000000000e+00
-5.0000000000000000e+00 5.0000000000000000e+00
-5.0000000000000000e+00 5.0000000000000000e+00
ITEM: ATOMS id type xs ys zs
1 1 0.601134 0.281013 0.922286
2 1 0.823101 0.238732 0.0113698
3 1 0.576779 0.497028 0.179967
4 1 0.864779 0.136216 0.0291028
5 1 0.53285 0.220302 0.489596
6 1 0.299797 0.158952 0.0911191
7 1 0.0414612 0.533207 0.117839
8 1 0.815361 0.579893 0.796561
9 1 0.489365 0.288366 0.925048
10 1 0.785071 0.441014 0.720704
11 1 0.240304 0.719564 0.686376
12 1 0.878288 0.856952 0.400423
13 1 0.60855 0.386283 0.204625
14 1 0.10547 0.360247 0.554367
15 1 0.360723 0.428611 0.819057
16 1 0.554667 0.608999 0.148679
17 1 0.890199 0.158894 0.351318
18 1 0.483345 0.275579 0.402465
19 1 0.303886 0.481036 0.367592
20 1 0.573031 0.206697 0.734089
21 1 0.844388 0.174612 0.954327
22 1 0.0251749 0.41309 0.496853
23 1 0.500159 0.355741 0.481239
ITEM: TIMESTEP
27
ITEM: NUMBER OF ATOMS
23
ITEM: BOX BOUNDS ff ff ff
-5.0000000000000000e+00 5.0000000000000000e+00
-5.0000000000000000e+00 5.0000000000000000e+00
-5.0000000000000000e+00 5.0000000000000000e+00
ITEM: ATOMS id type xs ys zs
1 1 0.601159 0.280008 0.919716
2 1 0.823 0.238689 0.0116477
3 1 0.576646 0.497245 0.180113
4 1 0.864681 0.136431 0.0293012
5 1 0.530921 0.230302 0.490354
6 1 0.299882 0.159064 0.091231
7 1 0.0415618 0.533158 0.117968
8 1 0.814203 0.574592 0.793661
9 1 0.489102 0.289099 0.922609
10 1 0.785707 0.445794 0.723761
11 1 0.240357 0.719316 0.686365
12 1 0.878266 0.856919 0.400426
13 1 0.607361 0.388922 0.204727
14 1 0.105714 0.360533 0.554076
15 1 0.362144 0.427195 0.819866
16 1 0.555359 0.605292 0.149774
17 1 0.890002 0.158978 0.351065
18 1 0.483077 0.275021 0.400891
19 1 0.304956 0.479949 0.368335
20 1 0.572652 0.208718 0.73626
21 1 0.843585 0.175021 0.954114
22 1 0.0256167 0.413076 0.496834
23 1 0.501929 0.347706 0.481906
ITEM: TIMESTEP
28
ITEM: NUMBER OF ATOMS
23
ITEM: BOX BOUNDS ff ff ff
-5.0000000000000000e+00 5.0000000000000000e+00
-5.0000000000000000e+00 5.0000000000000000e+00
-5.0000000000000000e+00 5.0000000000000000e+00
ITEM: ATOMS id type xs ys zs
1 1 0.601078 0.279858 0.919309
2 1 0.822926 0.238833 0.0116592
3 1 0.576738 0.497049 0.180155
4 1 0.864729 0.13631 0.0293539
5 1 0.5306 0.232648 0.490824
6 1 0.299893 0.159079 0.0912463
7 1 0.0415751 0.533151 0.117985
8 1 0.813924 0.573326 0.792972
9 1 0.489132 0.289202 0.92224
10 1 0.785917 0.446991 0.724471
11 1 0.240364 0.719284 0.686364
12 1 0.878263 0.856915 0.400426
13 1 0.60698 0.390041 0.204571
14 1 0.105934 0.360448 0.55417
15 1 0.362358 0.426981 0.81999
16 1 0.55556 0.604251 0.150074
17 1 0.889975 0.158989 0.35103
18 1 0.482666 0.274699 0.399658
19 1 0.305096 0.479801 0.368432
20 1 0.572598 0.209027 0.736641
21 1 0.843475 0.175076 0.954084
22 1 0.0254889 0.413197 0.496698
23 1 0.50261 0.345873 0.482649
ITEM: TIMESTEP
29
ITEM: NUMBER OF ATOMS
23
ITEM: BOX BOUNDS ff ff ff
-5.0000000000000000e+00 5.0000000000000000e+00
-5.0000000000000000e+00 5.0000000000000000e+00
-5.0000000000000000e+00 5.0000000000000000e+00
ITEM: ATOMS id type xs ys zs
1 1 0.600831 0.279668 0.918744
2 1 0.822829 0.239042 0.0116497
3 1 0.577036 0.496387 0.180249
4 1 0.864807 0.136117 0.0294111
5 1 0.530167 0.237087 0.492111
6 1 0.299903 0.159091 0.091259
7 1 0.0415841 0.533146 0.117997
8 1 0.813142 0.569829 0.791083
9 1 0.489266 0.289305 0.921801
10 1 0.786649 0.450435 0.726375
11 1 0.240368 0.719262 0.686362
12 1 0.878261 0.856912 0.400427
13 1 0.606235 0.392452 0.204108
14 1 0.106215 0.360309 0.554322
15 1 0.362612 0.426723 0.820142
16 1 0.555926 0.602396 0.150598
17 1 0.889957 0.158998 0.351004
18 1 0.481471 0.274144 0.396414
19 1 0.305184 0.479689 0.368487
20 1 0.572546 0.209413 0.737297
21 1 0.843387 0.17512 0.954058
22 1 0.0252768 0.413362 0.496514
23 1 0.504229 0.342141 0.484591
ITEM: TIMESTEP
30
ITEM: NUMBER OF ATOMS
23
ITEM: BOX BOUNDS ff ff ff
-5.0000000000000000e+00 5.0000000000000000e+00
-5.0000000000000000e+00 5.0000000000000000e+00
-5.0000000000000000e+00 5.0000000000000000e+00
ITEM: ATOMS id type xs ys zs
1 1 0.600796 0.279594 0.918536
2 1 0.822819 0.239056 0.0116569
3 1 0.577039 0.496469 0.180218
4 1 0.86481 0.136109 0.029421
5 1 0.530173 0.237538 0.492373
6 1 0.299906 0.159096 0.0912636
7 1 0.0415873 0.533145 0.118001
8 1 0.812837 0.568461 0.790343
9 1 0.489259 0.289347 0.921642
10 1 0.786937 0.451784 0.72712
11 1 0.24037 0.719254 0.686361
12 1 0.878261 0.856911 0.400427
13 1 0.606103 0.392836 0.204053
14 1 0.106243 0.360306 0.554325
15 1 0.362704 0.42663 0.820197
16 1 0.556025 0.601892 0.15074
17 1 0.88995 0.159001 0.350994
18 1 0.481264 0.274058 0.395828
19 1 0.305215 0.479649 0.368507
20 1 0.572527 0.209554 0.737538
21 1 0.843356 0.175135 0.954049
22 1 0.025273 0.413374 0.4965
23 1 0.504426 0.341832 0.484909
ITEM: TIMESTEP
31
ITEM: NUMBER OF ATOMS
23
ITEM: BOX BOUNDS ff ff ff
-5.0000000000000000e+00 5.0000000000000000e+00