ITEM: TIMESTEP
0
ITEM: NUMBER OF ATOMS
13
ITEM: BOX BOUNDS pp pp pp
0.0000000000000000e+00 1.0910000000000000e+01
0.0000000000000000e+00 1.0910000000000000e+01
0.0000000000000000e+00 1.0910000000000000e+01
ITEM: ATOMS id type xs ys zs
1 1 0.997406 0.405746 0.369392
2 1 0.368837 0.0427632 0.72058
3 1 0.795336 0.207833 0.0468533
4 1 0.463323 0.0636599 0.932016
5 1 0.3903 0.772253 0.259671
6 1 0.283554 0.695889 0.808398
7 1 0.747923 0.344141 0.972788
8 1 0.644739 0.120155 0.439398
9 1 0.967543 0.494495 0.96938
10 1 0.37266 0.290258 0.366453
11 1 0.979399 0.757706 0.772097
12 1 0.633564 0.304894 0.352448
13 1 0.591232 0.832478 0.465005
ITEM: TIMESTEP
10
ITEM: NUMBER OF ATOMS
13
ITEM: BOX BOUNDS pp pp pp
0.0000000000000000e+00 1.0910000000000000e+01
0.0000000000000000e+00 1.0910000000000000e+01
0.0000000000000000e+00 1.0910000000000000e+01
ITEM: ATOMS id type xs ys zs
1 1 0.997063 0.405451 0.368955
2 1 0.3756 0.0436639 0.73474
3 1 0.786992 0.23343 0.0339657
4 1 0.457373 0.062416 0.917699
5 1 0.392283 0.772939 0.261549
6 1 0.281887 0.696829 0.808217
7 1 0.759633 0.322294 0.986273
8 1 0.640048 0.164922 0.417431
9 1 0.963407 0.491493 0.969336
10 1 0.380057 0.289786 0.366495
11 1 0.981104 0.756389 0.773011
12 1 0.630815 0.258063 0.373744
13 1 0.58955 0.834595 0.463064
ITEM: TIMESTEP
20
ITEM: NUMBER OF ATOMS
13
ITEM: BOX BOUNDS pp pp pp
0.0000000000000000e+00 1.0910000000000000e+01
0.0000000000000000e+00 1.0910000000000000e+01
0.0000000000000000e+00 1.0910000000000000e+01
ITEM: ATOMS id type xs ys zs
1 1 0.996803 0.405204 0.368613
2 1 0.396664 0.0480794 0.78133
3 1 0.78694 0.235305 0.0337478
4 1 0.436776 0.0576439 0.871003
5 1 0.394045 0.773558 0.263246
6 1 0.280456 0.697637 0.808071
7 1 0.763235 0.324126 0.986746
8 1 0.638274 0.162236 0.418354
9 1 0.95939 0.488332 0.969457
10 1 0.388576 0.287932 0.367113
11 1 0.982586 0.755325 0.773745
12 1 0.624268 0.261764 0.371683
13 1 0.587802 0.835129 0.461371
ITEM: TIMESTEP
30
ITEM: NUMBER OF ATOMS
13
ITEM: BOX BOUNDS pp pp pp
0.0000000000000000e+00 1.0910000000000000e+01
0.0000000000000000e+00 1.0910000000000000e+01
0.0000000000000000e+00 1.0910000000000000e+01
ITEM: ATOMS id type xs ys zs
1 1 0.996395 0.404885 0.368099
2 1 0.395838 0.0472911 0.77907
3 1 0.787388 0.238003 0.0335705
4 1 0.437892 0.0577003 0.873028
5 1 0.396993 0.774574 0.266138
6 1 0.27824 0.698925 0.807899
7 1 0.770334 0.328945 0.986994
8 1 0.633093 0.168596 0.414934
9 1 0.951391 0.481702 0.969978
10 1 0.41064 0.283526 0.368437
11 1 0.984933 0.75379 0.774795
12 1 0.607757 0.258606 0.373059
13 1 0.58492 0.835727 0.458478
ITEM: TIMESTEP
40
ITEM: NUMBER OF ATOMS
13
ITEM: BOX BOUNDS pp pp pp
0.0000000000000000e+00 1.0910000000000000e+01
0.0000000000000000e+00 1.0910000000000000e+01
0.0000000000000000e+00 1.0910000000000000e+01
ITEM: ATOMS id type xs ys zs
1 1 0.995877 0.404535 0.367458
2 1 0.396122 0.0466389 0.77921
3 1 0.787918 0.243118 0.0324667
4 1 0.437937 0.0574508 0.872587
5 1 0.400978 0.775962 0.270068
6 1 0.275375 0.700533 0.807656
7 1 0.781897 0.335615 0.987765
8 1 0.622362 0.178855 0.409739
9 1 0.938772 0.470943 0.971056
10 1 0.464146 0.273586 0.371145
11 1 0.987966 0.751955 0.776038
12 1 0.565454 0.256777 0.374733
13 1 0.581011 0.836302 0.454558
ITEM: TIMESTEP
50
ITEM: NUMBER OF ATOMS
13
ITEM: BOX BOUNDS pp pp pp
0.0000000000000000e+00 1.0910000000000000e+01
0.0000000000000000e+00 1.0910000000000000e+01
0.0000000000000000e+00 1.0910000000000000e+01
ITEM: ATOMS id type xs ys zs
1 1 0.99534 0.404314 0.366776
2 1 0.396215 0.0459632 0.778944
3 1 0.791902 0.265386 0.0241344
4 1 0.438094 0.0572306 0.872502
5 1 0.406416 0.777919 0.275501
6 1 0.272045 0.702222 0.80732
7 1 0.822832 0.355879 0.990769
8 1 0.578084 0.187603 0.406906
9 1 0.893421 0.429188 0.97715
10 1 0.491382 0.240406 0.385747
11 1 0.991509 0.75033 0.777106
12 1 0.583009 0.279714 0.362452
13 1 0.575567 0.836116 0.449171
ITEM: TIMESTEP
60
ITEM: NUMBER OF ATOMS
13
ITEM: BOX BOUNDS pp pp pp
0.0000000000000000e+00 1.0910000000000000e+01
0.0000000000000000e+00 1.0910000000000000e+01
0.0000000000000000e+00 1.0910000000000000e+01
ITEM: ATOMS id type xs ys zs
1 1 0.995262 0.404289 0.366681
2 1 0.396275 0.0459013 0.779021
3 1 0.793175 0.264928 0.0248231
4 1 0.438049 0.0571865 0.872369
5 1 0.407349 0.778263 0.276446
6 1 0.271595 0.702433 0.807268
7 1 0.820506 0.357253 0.98949
8 1 0.577603 0.187556 0.406901
9 1 0.89443 0.428307 0.977891
10 1 0.491618 0.239959 0.385933
11 1 0.991999 0.750192 0.777192
12 1 0.583334 0.280028 0.362227
13 1 0.57462 0.835975 0.448237
ITEM: TIMESTEP
70
ITEM: NUMBER OF ATOMS
13
ITEM: BOX BOUNDS pp pp pp
0.0000000000000000e+00 1.0910000000000000e+01
0.0000000000000000e+00 1.0910000000000000e+01
0.0000000000000000e+00 1.0910000000000000e+01
ITEM: ATOMS id type xs ys zs
1 1 0.99457 0.404061 0.365824
2 1 0.396379 0.0452406 0.778777
3 1 0.821551 0.284563 0.0247966
4 1 0.438054 0.0569045 0.872113
5 1 0.417808 0.782106 0.287082
6 1 0.267304 0.704348 0.806762
7 1 0.794345 0.369482 0.976448
8 1 0.577806 0.186773 0.406811
9 1 0.891837 0.396734 0.992328
10 1 0.491659 0.239642 0.385932
11 1 0.996671 0.748954 0.777964
12 1 0.583778 0.279527 0.361935
13 1 0.564053 0.833937 0.437708
ITEM: TIMESTEP
80
ITEM: NUMBER OF ATOMS
13
ITEM: BOX BOUNDS pp pp pp
0.0000000000000000e+00 1.0910000000000000e+01
0.0000000000000000e+00 1.0910000000000000e+01
0.0000000000000000e+00 1.0910000000000000e+01
ITEM: ATOMS id type xs ys zs
1 1 0.994423 0.40401 0.365637
2 1 0.396395 0.0451035 0.778723
3 1 0.833908 0.296345 0.0230422
4 1 0.438051 0.0568458 0.872062
5 1 0.420953 0.783259 0.290298
6 1 0.266319 0.704758 0.806645
7 1 0.787045 0.37327 0.972581
8 1 0.577753 0.186777 0.406717
9 1 0.886711 0.381213 0.998243
10 1 0.49187 0.23956 0.385929
11 1 0.997741 0.748697 0.778126
12 1 0.583754 0.279272 0.361959
13 1 0.560891 0.833159 0.434518
ITEM: TIMESTEP
90
ITEM: NUMBER OF ATOMS
13
ITEM: BOX BOUNDS pp pp pp
0.0000000000000000e+00 1.0910000000000000e+01
0.0000000000000000e+00 1.0910000000000000e+01
0.0000000000000000e+00 1.0910000000000000e+01
ITEM: ATOMS id type xs ys zs
1 1 0.993502 0.403651 0.364357
2 1 0.396452 0.0443079 0.778401
3 1 0.833668 0.296619 0.0238048
4 1 0.43798 0.0564971 0.87174
5 1 0.456354 0.796205 0.326691
6 1 0.259663 0.707292 0.805842
7 1 0.787256 0.373108 0.973107
8 1 0.577808 0.186066 0.406517
9 1 0.886486 0.381267 0.998843
10 1 0.492154 0.239142 0.385942
11 1 0.0049796 0.747223 0.779063
12 1 0.584068 0.27849 0.361841
13 1 0.525445 0.822403 0.39833
ITEM: TIMESTEP
100
ITEM: NUMBER OF ATOMS
13
ITEM: BOX BOUNDS pp pp pp
0.0000000000000000e+00 1.0910000000000000e+01
0.0000000000000000e+00 1.0910000000000000e+01
0.0000000000000000e+00 1.0910000000000000e+01
ITEM: ATOMS id type xs ys zs
1 1 0.991844 0.402996 0.362048
2 1 0.396426 0.0429665 0.777892
3 1 0.833407 0.29688 0.0253302
4 1 0.437825 0.0559406 0.871182
5 1 0.456735 0.797339 0.327103
6 1 0.242176 0.71251 0.80376
7 1 0.787226 0.373031 0.973821
8 1 0.577878 0.184765 0.406052
9 1 0.886372 0.381369 4.29138e-06
10 1 0.49246 0.23844 0.385858
11 1 0.02354 0.743842 0.781307
12 1 0.584575 0.277278 0.361534
13 1 0.52535 0.824913 0.398589
ITEM: TIMESTEP
110
ITEM: NUMBER OF ATOMS
13
ITEM: BOX BOUNDS pp pp pp
0.0000000000000000e+00 1.0910000000000000e+01
0.0000000000000000e+00 1.0910000000000000e+01
0.0000000000000000e+00 1.0910000000000000e+01
ITEM: ATOMS id type xs ys zs
1 1 0.991115 0.402708 0.361011
2 1 0.396379 0.0424388 0.777694
3 1 0.8332 0.296904 0.026017
4 1 0.437736 0.0557344 0.870926
5 1 0.457633 0.798148 0.328049
6 1 0.204719 0.718712 0.799843
7 1 0.787271 0.372949 0.974172
8 1 0.577922 0.184138 0.405863
9 1 0.886406 0.381541 0.000482645
10 1 0.492539 0.238129 0.385823
11 1 0.0614889 0.738352 0.785295
12 1 0.584826 0.276788 0.361383
13 1 0.524579 0.825729 0.397921
ITEM: TIMESTEP
120
ITEM: NUMBER OF ATOMS
13
ITEM: BOX BOUNDS pp pp pp
0.0000000000000000e+00 1.0910000000000000e+01
0.0000000000000000e+00 1.0910000000000000e+01
0.0000000000000000e+00 1.0910000000000000e+01
ITEM: ATOMS id type xs ys zs
1 1 0.991075 0.402692 0.360953
2 1 0.396369 0.0424141 0.777669
3 1 0.833302 0.297007 0.0260399
4 1 0.437737 0.0557284 0.870925
5 1 0.456889 0.797865 0.327273
6 1 0.183828 0.721612 0.797719
7 1 0.787243 0.372983 0.974163
8 1 0.577898 0.184162 0.405826
9 1 0.886327 0.381409 0.00055382
10 1 0.492609 0.238108 0.385818
11 1 0.0824059 0.735483 0.787423
12 1 0.5848 0.276705 0.361404
13 1 0.52533 0.826102 0.398711
ITEM: TIMESTEP
130
ITEM: NUMBER OF ATOMS
13
ITEM: BOX BOUNDS pp pp pp
0.0000000000000000e+00 1.0910000000000000e+01
0.0000000000000000e+00 1.0910000000000000e+01
0.0000000000000000e+00 1.0910000000000000e+01
ITEM: ATOMS id type xs ys zs
1 1 0.961178 0.390856 0.317869
2 1 0.393671 0.0271023 0.769163
3 1 0.829358 0.302125 0.0537285
4 1 0.434183 0.0507706 0.860729
5 1 0.464436 0.818986 0.335573
6 1 0.194109 0.742231 0.797334
7 1 0.788798 0.370253 0.988165
8 1 0.578241 0.160731 0.3968
9 1 0.885054 0.382707 0.0222887
10 1 0.498781 0.22487 0.384281
11 1 0.0916762 0.734923 0.790918
12 1 0.593404 0.254169 0.35649
13 1 0.522925 0.872547 0.40114
ITEM: TIMESTEP
140
ITEM: NUMBER OF ATOMS
13
ITEM: BOX BOUNDS pp pp pp
0.0000000000000000e+00 1.0910000000000000e+01
0.0000000000000000e+00 1.0910000000000000e+01
0.0000000000000000e+00 1.0910000000000000e+01
ITEM: ATOMS id type xs ys zs
1 1 0.935543 0.380282 0.266894
2 1 0.390243 0.0184682 0.766773
3 1 0.830409 0.307551 0.0781795
4 1 0.431533 0.0472326 0.856526
5 1 0.474107 0.837313 0.345772
6 1 0.198828 0.753091 0.796702
7 1 0.796848 0.366786 0.00111931
8 1 0.573252 0.138952 0.388342
9 1 0.887683 0.38608 0.0451094
10 1 0.501043 0.21176 0.384561
11 1 0.0973773 0.736356 0.791891
12 1 0.597573 0.23378 0.357736
13 1 0.521374 0.914618 0.394875
ITEM: TIMESTEP
150
ITEM: NUMBER OF ATOMS
13
ITEM: BOX BOUNDS pp pp pp
0.0000000000000000e+00 1.0910000000000000e+01
0.0000000000000000e+00 1.0910000000000000e+01
0.0000000000000000e+00 1.0910000000000000e+01
ITEM: ATOMS id type xs ys zs
1 1 0.935437 0.380239 0.266629
2 1 0.390241 0.018461 0.766776
3 1 0.830388 0.30753 0.0783001
4 1 0.431528 0.0472274 0.856518
5 1 0.474167 0.837421 0.345832
6 1 0.198812 0.753098 0.7967
7 1 0.796868 0.366759 0.00117129
8 1 0.573241 0.138756 0.388355
9 1 0.887778 0.386165 0.0452104
10 1 0.500938 0.211746 0.384582
11 1 0.0974039 0.736362 0.791893
12 1 0.597665 0.233823 0.357698
13 1 0.521348 0.914682 0.394815
ITEM: TIMESTEP
160
ITEM: NUMBER OF ATOMS
13
ITEM: BOX BOUNDS pp pp pp
0.0000000000000000e+00 1.0910000000000000e+01
0.0000000000000000e+00 1.0910000000000000e+01
0.0000000000000000e+00 1.0910000000000000e+01
ITEM: ATOMS id type xs ys zs
1 1 0.924934 0.375991 0.240325
2 1 0.389803 0.017599 0.766604
3 1 0.832465 0.310381 0.0885324
4 1 0.431265 0.0468836 0.856189
5 1 0.476923 0.84294 0.348535
6 1 0.199412 0.754155 0.796638
7 1 0.802292 0.365364 0.00754765
8 1 0.570453 0.133081 0.386486
9 1 0.889648 0.388437 0.0557194
10 1 0.501323 0.207725 0.384993
11 1 0.0978166 0.736535 0.791952
12 1 0.597663 0.227161 0.358851
13 1 0.521817 0.926017 0.392107
ITEM: TIMESTEP
170
ITEM: NUMBER OF ATOMS
13
ITEM: BOX BOUNDS pp pp pp
0.0000000000000000e+00 1.0910000000000000e+01
0.0000000000000000e+00 1.0910000000000000e+01
0.0000000000000000e+00 1.0910000000000000e+01
ITEM: ATOMS id type xs ys zs
1 1 0.900328 0.366796 0.177699
2 1 0.389603 0.0171612 0.766594
3 1 0.838472 0.31623 0.111687
4 1 0.431083 0.0466697 0.85593
5 1 0.479368 0.848041 0.350809
6 1 0.199197 0.75463 0.79658
7 1 0.814553 0.363087 0.0230496
8 1 0.568352 0.128029 0.385401
9 1 0.895374 0.393774 0.0801376
10 1 0.500835 0.204947 0.385432
11 1 0.0985789 0.736727 0.792009
12 1 0.598243 0.222955 0.359378
13 1 0.521828 0.933224 0.389772
ITEM: TIMESTEP
180
ITEM: NUMBER OF ATOMS
13
ITEM: BOX BOUNDS pp pp pp
0.0000000000000000e+00 1.0910000000000000e+01
0.0000000000000000e+00 1.0910000000000000e+01
0.0000000000000000e+00 1.0910000000000000e+01
ITEM: ATOMS id type xs ys zs
1 1 0.882017 0.375781 0.17246
2 1 0.388932 0.015861 0.766363
3 1 0.848873 0.307695 0.106799
4 1 0.430647 0.0461209 0.855402
5 1 0.490357 0.872607 0.360318
6 1 0.200141 0.756243 0.796493
7 1 0.809365 0.37306 0.0408785
8 1 0.558358 0.106545 0.379945
9 1 0.906654 0.382454 0.0739116
10 1 0.499116 0.191444 0.387427
11 1 0.099183 0.737004 0.792103
12 1 0.598787 0.19916 0.362612
13 1 0.523383 0.968297 0.379767
ITEM: TIMESTEP
190
ITEM: NUMBER OF ATOMS
13
ITEM: BOX BOUNDS pp pp pp
0.0000000000000000e+00 1.0910000000000000e+01
0.0000000000000000e+00 1.0910000000000000e+01
0.0000000000000000e+00 1.0910000000000000e+01
ITEM: ATOMS id type xs ys zs
1 1 0.861966 0.383908 0.156669
2 1 0.388583 0.0151812 0.766251
3 1 0.856562 0.297141 0.102759
4 1 0.430412 0.0458287 0.855113
5 1 0.49831 0.893194 0.366099
6 1 0.200496 0.757067 0.796441
7 1 0.812666 0.38195 0.0659906
8 1 0.550279 0.0912854 0.376584
9 1 0.914779 0.375521 0.0693918
10 1 0.498269 0.179722 0.388437
11 1 0.0996423 0.737175 0.792159
12 1 0.598716 0.181779 0.364493
13 1 0.525135 0.992518 0.374092
ITEM: TIMESTEP
200
ITEM: NUMBER OF ATOMS
13
ITEM: BOX BOUNDS pp pp pp
0.0000000000000000e+00 1.0910000000000000e+01
0.0000000000000000e+00 1.0910000000000000e+01
0.0000000000000000e+00 1.0910000000000000e+01
ITEM: ATOMS id type xs ys zs
1 1 0.861409 0.383885 0.156803
2 1 0.387932 0.0139296 0.766016
3 1 0.856489 0.296919 0.102858
4 1 0.429955 0.0452679 0.854545
5 1 0.499282 0.90046 0.365711
6 1 0.201147 0.758626 0.796345
7 1 0.812353 0.38192 0.0664751
8 1 0.57309 0.087963 0.378095
9 1 0.91453 0.375001 0.0696443
10 1 0.497893 0.157587 0.385441
11 1 0.100531 0.737521 0.79226
12 1 0.592936 0.188973 0.363381
13 1 0.508268 1.00422 0.376906
ITEM: TIMESTEP
210
ITEM: NUMBER OF ATOMS
13
ITEM: BOX BOUNDS pp pp pp
0.0000000000000000e+00 1.0910000000000000e+01
0.0000000000000000e+00 1.0910000000000000e+01
0.0000000000000000e+00 1.0910000000000000e+01
ITEM: ATOMS id type xs ys zs
1 1 0.86094 0.383882 0.157161
2 1 0.3873 0.0127138 0.76579
3 1 0.856334 0.296521 0.103019
4 1 0.429509 0.044722 0.85399
5 1 0.501638 0.923628 0.367087
6 1 0.201771 0.760138 0.796251
7 1 0.811889 0.381924 0.0667495
8 1 0.588771 0.0805355 0.377714
9 1 0.914466 0.374628 0.0697883
10 1 0.497124 0.127877 0.381529
11 1 0.101402 0.737858 0.792358
12 1 0.5825 0.182331 0.364642
13 1 0.502171 0.0255124 0.378403
ITEM: TIMESTEP
220
ITEM: NUMBER OF ATOMS
13
ITEM: BOX BOUNDS pp pp pp
0.0000000000000000e+00 1.0910000000000000e+01
0.0000000000000000e+00 1.0910000000000000e+01
0.0000000000000000e+00 1.0910000000000000e+01
ITEM: ATOMS id type xs ys zs
1 1 0.860679 0.3837 0.157275
2 1 0.386643 0.0114862 0.765569
3 1 0.856085 0.296423 0.103209
4 1 0.429056 0.0441704 0.853424
5 1 0.541862 0.956657 0.366236
6 1 0.202399 0.76166 0.796149
7 1 0.811722 0.381748 0.0669722
8 1 0.571403 0.0588998 0.377483
9 1 0.914182 0.374391 0.0700258
10 1 0.498295 0.13052 0.389754
11 1 0.102287 0.738218 0.792444
12 1 0.5917 0.159289 0.357587
13 1 0.469502 0.0351073 0.378353
ITEM: TIMESTEP
230
ITEM: NUMBER OF ATOMS
13
ITEM: BOX BOUNDS pp pp pp
0.0000000000000000e+00 1.0910000000000000e+01
0.0000000000000000e+00 1.0910000000000000e+01
0.0000000000000000e+00 1.0910000000000000e+01
ITEM: ATOMS id type xs ys zs
1 1 0.860685 0.383718 0.157363
2 1 0.386617 0.0114383 0.76556
3 1 0.856054 0.296334 0.10323
4 1 0.429038 0.0441486 0.853401
5 1 0.542078 0.960642 0.366557
6 1 0.202424 0.761721 0.796144
7 1 0.811653 0.381763 0.0669205
8 1 0.570125 0.0586359 0.377634
9 1 0.914242 0.374421 0.0699948
10 1 0.498333 0.131134 0.390803
11 1 0.102322 0.738232 0.792447
12 1 0.591766 0.156744 0.357009
13 1 0.470477 0.0333386 0.377416
ITEM: TIMESTEP
240
ITEM: NUMBER OF ATOMS
13
ITEM: BOX BOUNDS pp pp pp
0.0000000000000000e+00 1.0910000000000000e+01
0.0000000000000000e+00 1.0910000000000000e+01
0.0000000000000000e+00 1.0910000000000000e+01
ITEM: ATOMS id type xs ys zs
1 1 0.860632 0.383649 0.157326
2 1 0.386453 0.0111416 0.765504
3 1 0.856002 0.296376 0.103268
4 1 0.428925 0.0440137 0.853258
5 1 0.542737 0.961254 0.365599
6 1 0.202577 0.762095 0.796119
7 1 0.811669 0.381697 0.0669992
8 1 0.570858 0.0583261 0.384299
9 1 0.914124 0.374352 0.0700752
10 1 0.499314 0.131608 0.396017
11 1 0.102542 0.738324 0.792467
12 1 0.588722 0.153955 0.351381
13 1 0.471258 0.035481 0.372168
ITEM: TIMESTEP
250
ITEM: NUMBER OF ATOMS
13
ITEM: BOX BOUNDS pp pp pp
0.0000000000000000e+00 1.0910000000000000e+01
0.0000000000000000e+00 1.0910000000000000e+01
0.0000000000000000e+00 1.0910000000000000e+01
ITEM: ATOMS id type xs ys zs
1 1 0.860434 0.383528 0.157516
2 1 0.385817 0.0099927 0.76529
3 1 0.855774 0.296174 0.103435
4 1 0.428493 0.0434921 0.852709
5 1 0.546799 0.972316 0.359195
6 1 0.203172 0.763547 0.79602
7 1 0.81145 0.381573 0.0671095
8 1 0.571238 0.0572909 0.41168
9 1 0.913983 0.374178 0.0702103
10 1 0.50286 0.133355 0.41518
11 1 0.103396 0.73868 0.792543
12 1 0.564045 0.122899 0.332569
13 1 0.488353 0.0552453 0.351022
ITEM: TIMESTEP
260
ITEM: NUMBER OF ATOMS
13
ITEM: BOX BOUNDS pp pp pp
0.0000000000000000e+00 1.0910000000000000e+01
0.0000000000000000e+00 1.0910000000000000e+01
0.0000000000000000e+00 1.0910000000000000e+01
ITEM: ATOMS id type xs ys zs
1 1 0.860364 0.383488 0.157599
2 1 0.385532 0.00947075 0.765191
3 1 0.855687 0.296076 0.103492
4 1 0.4283 0.0432556 0.852455
5 1 0.560054 -0.00446877 0.341148
6 1 0.203447 0.764221 0.795974
7 1 0.811353 0.381532 0.0671311
8 1 0.56102 0.0543924 0.425474
9 1 0.913948 0.374118 0.0702414
10 1 0.509588 0.141294 0.406113
11 1 0.103795 0.738849 0.792577
12 1 0.564727 0.0974347 0.331914
13 1 0.477999 0.0526085 0.36517
ITEM: TIMESTEP
270
ITEM: NUMBER OF ATOMS
13
ITEM: BOX BOUNDS pp pp pp
0.0000000000000000e+00 1.0910000000000000e+01
0.0000000000000000e+00 1.0910000000000000e+01
0.0000000000000000e+00 1.0910000000000000e+01
ITEM: ATOMS id type xs ys zs
1 1 0.860352 0.383474 0.157597
2 1 0.385478 0.00937047 0.765171
3 1 0.855673 0.296076 0.103501
4 1 0.428263 0.04321 0.852405
5 1 0.559896 0.995383 0.341488
6 1 0.2035 0.76435 0.795965
7 1 0.81135 0.381518 0.0671441
8 1 0.561303 0.0545563 0.42536
9 1 0.913927 0.374102 0.0702549
10 1 0.509457 0.141124 0.406479
11 1 0.103872 0.738882 0.792583
12 1 0.564741 0.0974784 0.331771
13 1 0.478001 0.0527461 0.364761
ITEM: TIMESTEP
280
ITEM: NUMBER OF ATOMS
13
ITEM: BOX BOUNDS pp pp pp
0.0000000000000000e+00 1.0910000000000000e+01
0.0000000000000000e+00 1.0910000000000000e+01
0.0000000000000000e+00 1.0910000000000000e+01
ITEM: ATOMS id type xs ys zs
1 1 0.8594 0.382685 0.158158
2 1 0.381093 1.00131 0.763701
3 1 0.854558 0.295292 0.104221
4 1 0.4253 0.0395484 0.848438
5 1 0.560168 0.996161 0.341665
6 1 0.207661 0.774678 0.795224
7 1 0.810488 0.380719 0.0677479
8 1 0.561164 0.05457 0.426119
9 1 0.912966 0.373078 0.0709306
10 1 0.509602 0.14151 0.407203
11 1 0.110136 0.741565 0.793076
12 1 0.565103 0.0980465 0.332703
13 1 0.478175 0.0531077 0.365294
ITEM: TIMESTEP
290
ITEM: NUMBER OF ATOMS
13
ITEM: BOX BOUNDS pp pp pp
0.0000000000000000e+00 1.0910000000000000e+01
0.0000000000000000e+00 1.0910000000000000e+01
0.0000000000000000e+00 1.0910000000000000e+01
ITEM: ATOMS id type xs ys zs
1 1 0.856508 0.380332 0.160031
2 1 0.356585 0.96428 0.76682
3 1 0.851138 0.292749 0.106456
4 1 0.411642 0.0234117 0.831573
5 1 0.560707 0.997059 0.343915
6 1 0.224626 0.816228 0.790597
7 1 0.807752 0.378324 0.069529
8 1 0.561906 0.055471 0.427518
9 1 0.910166 0.369983 0.0729513
10 1 0.50954 0.141708 0.411229
11 1 0.140701 0.757318 0.794183
12 1 0.565682 0.1 0.334869
13 1 0.478861 0.0554087 0.364807
ITEM: TIMESTEP
300
ITEM: NUMBER OF ATOMS
13
ITEM: BOX BOUNDS pp pp pp
0.0000000000000000e+00 1.0910000000000000e+01
0.0000000000000000e+00 1.0910000000000000e+01
0.0000000000000000e+00 1.0910000000000000e+01
ITEM: ATOMS id type xs ys zs
1 1 0.855435 0.379602 0.16112
2 1 0.323562 0.922985 0.793082
3 1 0.849857 0.291423 0.107371
4 1 0.390205 -0.00023819 0.808222
5 1 0.560551 0.997778 0.343713
6 1 0.244971 0.859157 0.782111
7 1 0.80647 0.377573 0.0700584
8 1 0.562072 0.0557168 0.428284
9 1 0.909463 0.368882 0.073584
10 1 0.509245 0.142155 0.411872
11 1 0.178227 0.78134 0.793577
12 1 0.566722 0.100457 0.336017
13 1 0.479034 0.0554392 0.365468
ITEM: TIMESTEP
310
ITEM: NUMBER OF ATOMS
13
ITEM: BOX BOUNDS pp pp pp
0.0000000000000000e+00 1.0910000000000000e+01
0.0000000000000000e+00 1.0910000000000000e+01
0.0000000000000000e+00 1.0910000000000000e+01
ITEM: ATOMS id type xs ys zs
1 1 0.855437 0.379476 0.160845
2 1 0.323901 0.922977 0.793144
3 1 0.849873 0.291723 0.107354
4 1 0.390297 -4.19975e-05 0.80826
5 1 0.561154 0.998234 0.343158
6 1 0.244497 0.859016 0.781913
7 1 0.806701 0.377454 0.0702156
8 1 0.561179 0.0551884 0.428577
9 1 0.909199 0.368813 0.0737308
10 1 0.509881 0.142388 0.411006
11 1 0.178279 0.781301 0.79366
12 1 0.56644 0.100538 0.336198
13 1 0.478976 0.055205 0.366419
ITEM: TIMESTEP
320
ITEM: NUMBER OF ATOMS
13
ITEM: BOX BOUNDS pp pp pp
0.0000000000000000e+00 1.0910000000000000e+01
0.0000000000000000e+00 1.0910000000000000e+01
0.0000000000000000e+00 1.0910000000000000e+01
ITEM: ATOMS id type xs ys zs
1 1 0.855393 0.379432 0.160859
2 1 0.325074 0.921219 0.7937
3 1 0.849825 0.291703 0.107391
4 1 0.389433 1.00003 0.808229
5 1 0.561248 0.998357 0.343064
6 1 0.243207 0.860713 0.780354
7 1 0.806677 0.377411 0.0702574
8 1 0.561051 0.0551389 0.428633
9 1 0.909142 0.368759 0.0737743
10 1 0.509986 0.142444 0.410908
11 1 0.179371 0.781373 0.79452
12 1 0.566429 0.100527 0.336238
13 1 0.478978 0.0551661 0.366553
ITEM: TIMESTEP
330
ITEM: NUMBER OF ATOMS
13
ITEM: BOX BOUNDS pp pp pp
0.0000000000000000e+00 1.0910000000000000e+01
0.0000000000000000e+00 1.0910000000000000e+01
0.0000000000000000e+00 1.0910000000000000e+01
ITEM: ATOMS id type xs ys zs
1 1 0.855344 0.379384 0.160903
2 1 0.326634 0.918114 0.794782
3 1 0.849754 0.29165 0.107442
4 1 0.387675 -0.000230654 0.807994
5 1 0.561227 0.998236 0.343114
6 1 0.241337 0.863619 0.778057
7 1 0.806625 0.377359 0.0702931
8 1 0.561115 0.0551895 0.428536
9 1 0.909091 0.3687 0.0738211
10 1 0.509923 0.142501 0.411014
11 1 0.181581 0.781937 0.795745
12 1 0.566425 0.100574 0.336301
13 1 0.479084 0.055237 0.366478
ITEM: TIMESTEP
340
ITEM: NUMBER OF ATOMS
13
ITEM: BOX BOUNDS pp pp pp
0.0000000000000000e+00 1.0910000000000000e+01
0.0000000000000000e+00 1.0910000000000000e+01
0.0000000000000000e+00 1.0910000000000000e+01
ITEM: ATOMS id type xs ys zs
1 1 0.855328 0.379374 0.160906
2 1 0.327043 0.917176 0.795162
3 1 0.849745 0.291645 0.107451
4 1 0.387131 0.999659 0.807878
5 1 0.561177 0.998261 0.343185
6 1 0.240796 0.864459 0.777447
7 1 0.806619 0.37735 0.0703074
8 1 0.561178 0.0551733 0.428576
9 1 0.909075 0.368682 0.0738314
10 1 0.509927 0.142432 0.411009
11 1 0.182286 0.782167 0.796044
12 1 0.566473 0.100662 0.336249
13 1 0.479035 0.0552295 0.366434
ITEM: TIMESTEP
350
ITEM: NUMBER OF ATOMS
13
ITEM: BOX BOUNDS pp pp pp
0.0000000000000000e+00 1.0910000000000000e+01
0.0000000000000000e+00 1.0910000000000000e+01
0.0000000000000000e+00 1.0910000000000000e+01
ITEM: ATOMS id type xs ys zs
1 1 0.855289 0.379344 0.160933
2 1 0.328385 0.913817 0.796587
3 1 0.849707 0.291611 0.107483
4 1 0.384987 0.999016 0.807384
5 1 0.561204 0.998282 0.343162
6 1 0.239085 0.86767 0.775328
7 1 0.806585 0.377323 0.0703358
8 1 0.561191 0.055206 0.428588
9 1 0.909042 0.368637 0.0738591
10 1 0.509929 0.142445 0.411034
11 1 0.184891 0.783028 0.79709
12 1 0.566481 0.100628 0.336273
13 1 0.479038 0.055263 0.366424
ITEM: TIMESTEP
360
ITEM: NUMBER OF ATOMS
13
ITEM: BOX BOUNDS pp pp pp
0.0000000000000000e+00 1.0910000000000000e+01
0.0000000000000000e+00 1.0910000000000000e+01
0.0000000000000000e+00 1.0910000000000000e+01
ITEM: ATOMS id type xs ys zs
1 1 0.855101 0.379109 0.161023
2 1 0.328248 0.884134 0.807573
3 1 0.849417 0.291499 0.107684
4 1 0.36019 0.984022 0.801207
5 1 0.561486 0.996752 0.343021
6 1 0.23397 0.895384 0.763263
7 1 0.806454 0.377071 0.0705234
8 1 0.561799 0.0545125 0.428816
9 1 0.908752 0.368391 0.0740971
10 1 0.509748 0.144255 0.411301
11 1 0.215511 0.800422 0.803459
12 1 0.566495 0.101915 0.336488
13 1 0.478642 0.0548038 0.366024
ITEM: TIMESTEP
370
ITEM: NUMBER OF ATOMS
13
ITEM: BOX BOUNDS pp pp pp
0.0000000000000000e+00 1.0910000000000000e+01
0.0000000000000000e+00 1.0910000000000000e+01
0.0000000000000000e+00 1.0910000000000000e+01
ITEM: ATOMS id type xs ys zs
1 1 0.854979 0.379016 0.161051
2 1 0.323527 0.867321 0.812588
3 1 0.849335 0.291453 0.107764
4 1 0.333095 0.966624 0.793348
5 1 0.561235 0.998614 0.343268
6 1 0.246636 0.912834 0.764956
7 1 0.806399 0.376992 0.0706368
8 1 0.56108 0.0553851 0.428359
9 1 0.908623 0.368243 0.0741883
10 1 0.510091 0.142354 0.411017
11 1 0.23491 0.817371 0.804231
12 1 0.56645 0.100558 0.336588
13 1 0.479456 0.0555066 0.366485
ITEM: TIMESTEP
380
ITEM: NUMBER OF ATOMS
13
ITEM: BOX BOUNDS pp pp pp
0.0000000000000000e+00 1.0910000000000000e+01
0.0000000000000000e+00 1.0910000000000000e+01
0.0000000000000000e+00 1.0910000000000000e+01
ITEM: ATOMS id type xs ys zs
1 1 0.854965 0.379065 0.161202
2 1 0.325519 0.865712 0.813031
3 1 0.849305 0.291288 0.107787
4 1 0.330608 0.966201 0.793009
5 1 0.561307 0.99843 0.343177
6 1 0.247597 0.913049 0.765005
7 1 0.806269 0.377036 0.0705676
8 1 0.561244 0.0552944 0.428685
9 1 0.90874 0.368261 0.074129
10 1 0.510025 0.142546 0.41111
11 1 0.234481 0.819218 0.80403
12 1 0.566652 0.100752 0.336331
13 1 0.479103 0.0554185 0.366415
ITEM: TIMESTEP
390
ITEM: NUMBER OF ATOMS
13
ITEM: BOX BOUNDS pp pp pp
0.0000000000000000e+00 1.0910000000000000e+01
0.0000000000000000e+00 1.0910000000000000e+01
0.0000000000000000e+00 1.0910000000000000e+01
ITEM: ATOMS id type xs ys zs
1 1 0.854942 0.379038 0.161206
2 1 0.325955 0.865351 0.811867
3 1 0.849278 0.291282 0.107809
4 1 0.330087 0.966389 0.794158
5 1 0.561307 -0.00153959 0.343184
6 1 0.248025 0.912704 0.76378
7 1 0.80626 0.377008 0.0705942
8 1 0.561227 0.0553115 0.428645
9 1 0.908703 0.36823 0.0741571
10 1 0.510039 0.142534 0.411104
11 1 0.234201 0.819785 0.805188
12 1 0.566636 0.100739 0.336367
13 1 0.479155 0.0554402 0.366421
ITEM: TIMESTEP
400
ITEM: NUMBER OF ATOMS
13
ITEM: BOX BOUNDS pp pp pp
0.0000000000000000e+00 1.0910000000000000e+01
0.0000000000000000e+00 1.0910000000000000e+01
0.0000000000000000e+00 1.0910000000000000e+01
ITEM: ATOMS id type xs ys zs
1 1 0.854875 0.378967 0.161229
2 1 0.328074 0.863717 0.807255
3 1 0.8492 0.29125 0.107869
4 1 0.326774 0.96576 0.798885
5 1 0.561334 -0.001527 0.343169
6 1 0.249823 0.911205 0.758972
7 1 0.806222 0.376937 0.0706617
8 1 0.561279 0.0553021 0.428731
9 1 0.908612 0.368143 0.0742294
10 1 0.51005 0.14257 0.41112
11 1 0.233776 0.823687 0.809653
12 1 0.566711 0.100816 0.336311
13 1 0.479083 0.0554436 0.366395
ITEM: TIMESTEP
410
ITEM: NUMBER OF ATOMS
13
ITEM: BOX BOUNDS pp pp pp
0.0000000000000000e+00 1.0910000000000000e+01
0.0000000000000000e+00 1.0910000000000000e+01
0.0000000000000000e+00 1.0910000000000000e+01
ITEM: ATOMS id type xs ys zs
1 1 0.854749 0.378828 0.161266
2 1 0.33259 0.86002 0.796581
3 1 0.849054 0.291199 0.107984
4 1 0.316437 0.960173 0.810063
5 1 0.561399 0.998452 0.343122
6 1 0.254155 0.907661 0.748128
7 1 0.806159 0.376798 0.0707942
8 1 0.561332 0.055312 0.428798
9 1 0.908432 0.367977 0.0743707
10 1 0.510056 0.142682 0.41117
11 1 0.235604 0.836782 0.819559
12 1 0.566798 0.100909 0.336278
13 1 0.47905 0.0554777 0.366364
ITEM: TIMESTEP
420
ITEM: NUMBER OF ATOMS
13
ITEM: BOX BOUNDS pp pp pp
0.0000000000000000e+00 1.0910000000000000e+01
0.0000000000000000e+00 1.0910000000000000e+01
0.0000000000000000e+00 1.0910000000000000e+01
ITEM: ATOMS id type xs ys zs
1 1 0.854722 0.378846 0.161385
2 1 0.336667 0.856409 0.785563
3 1 0.849011 0.291067 0.108018
4 1 0.299859 0.945198 0.82214
5 1 0.561378 0.99854 0.343157
6 1 0.258846 0.903638 0.737458
7 1 0.806052 0.376812 0.0707605
8 1 0.561276 0.0553574 0.428669
9 1 0.908495 0.367968 0.0743458
10 1 0.510089 0.142611 0.411137
11 1 0.243489 0.859453 0.829079
12 1 0.566732 0.100845 0.336383
13 1 0.479199 0.0555274 0.366385
ITEM: TIMESTEP
430
ITEM: NUMBER OF ATOMS
13
ITEM: BOX BOUNDS pp pp pp
0.0000000000000000e+00 1.0910000000000000e+01
0.0000000000000000e+00 1.0910000000000000e+01
0.0000000000000000e+00 1.0910000000000000e+01
ITEM: ATOMS id type xs ys zs
1 1 0.854251 0.378425 0.161763
2 1 0.33697 0.856684 0.78517
3 1 0.848438 0.290615 0.10847
4 1 0.300165 0.945497 0.821829
5 1 0.561516 -0.00128609 0.343095
6 1 0.259259 0.903935 0.737059
7 1 0.805616 0.376384 0.0711251
8 1 0.561347 0.055449 0.428667
9 1 0.908041 0.3674 0.0747584
10 1 0.510212 0.142743 0.411161
11 1 0.243769 0.8597 0.828652
12 1 0.566904 0.101023 0.33642
13 1 0.479327 0.0557024 0.366309
ITEM: TIMESTEP
440
ITEM: NUMBER OF ATOMS
13
ITEM: BOX BOUNDS pp pp pp
0.0000000000000000e+00 1.0910000000000000e+01
0.0000000000000000e+00 1.0910000000000000e+01
0.0000000000000000e+00 1.0910000000000000e+01
ITEM: ATOMS id type xs ys zs
1 1 0.839561 0.365398 0.173627
2 1 0.347212 0.865269 0.774219
3 1 0.830559 0.276452 0.122583
4 1 0.309606 0.95331 0.811425
5 1 0.565765 0.004156 0.341235
6 1 0.270828 0.913902 0.72474
7 1 0.791962 0.363089 0.0824456
8 1 0.563779 0.0584758 0.428393
9 1 0.893929 0.349718 0.0875913
10 1 0.514015 0.146773 0.411919
11 1 0.252752 0.867841 0.814935
12 1 0.572348 0.106583 0.337585
13 1 0.483498 0.0613036 0.363783
ITEM: TIMESTEP
450
ITEM: NUMBER OF ATOMS
13
ITEM: BOX BOUNDS pp pp pp
0.0000000000000000e+00 1.0910000000000000e+01
0.0000000000000000e+00 1.0910000000000000e+01
0.0000000000000000e+00 1.0910000000000000e+01
ITEM: ATOMS id type xs ys zs
1 1 0.778985 0.310224 0.222628
2 1 0.389373 0.900858 0.727768
3 1 0.755944 0.219522 0.180968
4 1 0.348463 0.986331 0.767946
5 1 0.583816 0.0273159 0.333694
6 1 0.32 0.955166 0.674039
7 1 0.735816 0.30608 0.129884
8 1 0.573785 0.071281 0.425889
9 1 0.832752 0.275463 0.1426
10 1 0.529698 0.163277 0.414772
11 1 0.290749 0.902197 0.75745
12 1 0.594635 0.128927 0.343124
13 1 0.501798 0.0856287 0.353717
ITEM: TIMESTEP
460
ITEM: NUMBER OF ATOMS
13
ITEM: BOX BOUNDS pp pp pp
0.0000000000000000e+00 1.0910000000000000e+01
0.0000000000000000e+00 1.0910000000000000e+01
0.0000000000000000e+00 1.0910000000000000e+01
ITEM: ATOMS id type xs ys zs
1 1 0.735267 0.269709 0.259119
2 1 0.418972 0.926507 0.694393
3 1 0.700314 0.179297 0.224899