ITEM: TIMESTEP
0
ITEM: NUMBER OF ATOMS
7
ITEM: BOX BOUNDS ff ff ff
-5.0000000000000000e+00 5.0000000000000000e+00
-5.0000000000000000e+00 5.0000000000000000e+00
-5.0000000000000000e+00 5.0000000000000000e+00
ITEM: ATOMS id type xs ys zs
1 1 0.619689 0.109597 7.96909e-05
2 1 0.339366 0.719374 0.516814
3 1 0.0903267 0.121175 0.580352
4 1 0.980396 0.513321 0.390413
5 1 0.668747 0.628031 0.320834
6 1 0.254507 0.498135 0.156913
7 1 0.242586 0.149844 0.429097
ITEM: TIMESTEP
1
ITEM: NUMBER OF ATOMS
7
ITEM: BOX BOUNDS ff ff ff
-5.0000000000000000e+00 5.0000000000000000e+00
-5.0000000000000000e+00 5.0000000000000000e+00
-5.0000000000000000e+00 5.0000000000000000e+00
ITEM: ATOMS id type xs ys zs
1 1 0.619673 0.109618 0.000100471
2 1 0.339484 0.719275 0.516658
3 1 0.09775 0.122582 0.572976
4 1 0.979963 0.513476 0.390316
5 1 0.668985 0.627887 0.320989
6 1 0.254577 0.498121 0.157052
7 1 0.235185 0.148518 0.436412
ITEM: TIMESTEP
2
ITEM: NUMBER OF ATOMS
7
ITEM: BOX BOUNDS ff ff ff
-5.0000000000000000e+00 5.0000000000000000e+00
-5.0000000000000000e+00 5.0000000000000000e+00
-5.0000000000000000e+00 5.0000000000000000e+00
ITEM: ATOMS id type xs ys zs
1 1 0.619657 0.109638 0.000121168
2 1 0.339605 0.719176 0.516501
3 1 0.10775 0.124478 0.563038
4 1 0.979522 0.513633 0.390217
5 1 0.669229 0.627741 0.321146
6 1 0.254647 0.498108 0.157192
7 1 0.225207 0.146703 0.446289
ITEM: TIMESTEP
3
ITEM: NUMBER OF ATOMS
7
ITEM: BOX BOUNDS ff ff ff
-5.0000000000000000e+00 5.0000000000000000e+00
-5.0000000000000000e+00 5.0000000000000000e+00
-5.0000000000000000e+00 5.0000000000000000e+00
ITEM: ATOMS id type xs ys zs
1 1 0.619644 0.109656 0.000138397
2 1 0.339705 0.719092 0.516369
3 1 0.11775 0.126373 0.553099
4 1 0.979154 0.513764 0.390135
5 1 0.669433 0.627619 0.321277
6 1 0.254706 0.498098 0.157308
7 1 0.215226 0.144875 0.456177
ITEM: TIMESTEP
4
ITEM: NUMBER OF ATOMS
7
ITEM: BOX BOUNDS ff ff ff
-5.0000000000000000e+00 5.0000000000000000e+00
-5.0000000000000000e+00 5.0000000000000000e+00
-5.0000000000000000e+00 5.0000000000000000e+00
ITEM: ATOMS id type xs ys zs
1 1 0.619632 0.109671 0.000154045
2 1 0.339796 0.719017 0.516249
3 1 0.12775 0.128269 0.54316
4 1 0.978818 0.513884 0.390059
5 1 0.669619 0.627507 0.321397
6 1 0.254759 0.498088 0.157414
7 1 0.205243 0.143041 0.466069
ITEM: TIMESTEP
5
ITEM: NUMBER OF ATOMS
7
ITEM: BOX BOUNDS ff ff ff
-5.0000000000000000e+00 5.0000000000000000e+00
-5.0000000000000000e+00 5.0000000000000000e+00
-5.0000000000000000e+00 5.0000000000000000e+00
ITEM: ATOMS id type xs ys zs
1 1 0.619632 0.109671 0.000154102
2 1 0.339797 0.719016 0.516248
3 1 0.127442 0.128211 0.543467
4 1 0.978817 0.513885 0.390059
5 1 0.669619 0.627507 0.321397
6 1 0.254759 0.498088 0.157415
7 1 0.205551 0.143099 0.465763
ITEM: TIMESTEP
6
ITEM: NUMBER OF ATOMS
7
ITEM: BOX BOUNDS ff ff ff
-5.0000000000000000e+00 5.0000000000000000e+00
-5.0000000000000000e+00 5.0000000000000000e+00
-5.0000000000000000e+00 5.0000000000000000e+00
ITEM: ATOMS id type xs ys zs
1 1 0.619632 0.109671 0.000154216
2 1 0.339797 0.719016 0.516247
3 1 0.127134 0.128152 0.543774
4 1 0.978814 0.513886 0.390058
5 1 0.669621 0.627506 0.321398
6 1 0.25476 0.498088 0.157416
7 1 0.20586 0.143159 0.465456
ITEM: TIMESTEP
7
ITEM: NUMBER OF ATOMS
7
ITEM: BOX BOUNDS ff ff ff
-5.0000000000000000e+00 5.0000000000000000e+00
-5.0000000000000000e+00 5.0000000000000000e+00
-5.0000000000000000e+00 5.0000000000000000e+00
ITEM: ATOMS id type xs ys zs
1 1 0.619632 0.109672 0.000154318
2 1 0.339798 0.719015 0.516247
3 1 0.127088 0.128143 0.543819
4 1 0.978811 0.513887 0.390058
5 1 0.669623 0.627505 0.321399
6 1 0.25476 0.498088 0.157416
7 1 0.205905 0.143168 0.46541
ITEM: TIMESTEP
8
ITEM: NUMBER OF ATOMS
7
ITEM: BOX BOUNDS ff ff ff
-5.0000000000000000e+00 5.0000000000000000e+00
-5.0000000000000000e+00 5.0000000000000000e+00
-5.0000000000000000e+00 5.0000000000000000e+00
ITEM: ATOMS id type xs ys zs
1 1 0.619632 0.109672 0.000154602
2 1 0.3398 0.719013 0.516244
3 1 0.127049 0.128136 0.543858
4 1 0.978803 0.513889 0.390056
5 1 0.669627 0.627502 0.321402
6 1 0.254761 0.498088 0.157418
7 1 0.205945 0.143176 0.465371
ITEM: TIMESTEP
9
ITEM: NUMBER OF ATOMS
7
ITEM: BOX BOUNDS ff ff ff
-5.0000000000000000e+00 5.0000000000000000e+00
-5.0000000000000000e+00 5.0000000000000000e+00
-5.0000000000000000e+00 5.0000000000000000e+00
ITEM: ATOMS id type xs ys zs
1 1 0.619632 0.109672 0.000154691
2 1 0.339801 0.719013 0.516243
3 1 0.12706 0.128138 0.543847
4 1 0.978801 0.51389 0.390056
5 1 0.669628 0.627502 0.321402
6 1 0.254762 0.498088 0.157419
7 1 0.205934 0.143174 0.465381
ITEM: TIMESTEP
10
ITEM: NUMBER OF ATOMS
7
ITEM: BOX BOUNDS ff ff ff
-5.0000000000000000e+00 5.0000000000000000e+00
-5.0000000000000000e+00 5.0000000000000000e+00
-5.0000000000000000e+00 5.0000000000000000e+00
ITEM: ATOMS id type xs ys zs
1 1 0.619632 0.109672 0.000154829
2 1 0.339802 0.719012 0.516242
3 1 0.127067 0.12814 0.54384
4 1 0.978797 0.513892 0.390055
5 1 0.66963 0.6275 0.321404
6 1 0.254762 0.498088 0.15742
7 1 0.205927 0.143173 0.465388
ITEM: TIMESTEP
11
ITEM: NUMBER OF ATOMS
7
ITEM: BOX BOUNDS ff ff ff
-5.0000000000000000e+00 5.0000000000000000e+00
-5.0000000000000000e+00 5.0000000000000000e+00
-5.0000000000000000e+00 5.0000000000000000e+00
ITEM: ATOMS id type xs ys zs
1 1 0.61963 0.109675 0.000157397
2 1 0.339819 0.718997 0.516219
3 1 0.127081 0.128145 0.543825
4 1 0.97873 0.513916 0.39004
5 1 0.669669 0.627478 0.321427
6 1 0.254772 0.498089 0.157439
7 1 0.205916 0.143177 0.465396
ITEM: TIMESTEP
12
ITEM: NUMBER OF ATOMS
7
ITEM: BOX BOUNDS ff ff ff
-5.0000000000000000e+00 5.0000000000000000e+00
-5.0000000000000000e+00 5.0000000000000000e+00
-5.0000000000000000e+00 5.0000000000000000e+00
ITEM: ATOMS id type xs ys zs
1 1 0.619417 0.110009 0.000447174
2 1 0.34179 0.717337 0.51362
3 1 0.127334 0.128457 0.543492
4 1 0.971088 0.516643 0.388337
5 1 0.674075 0.624949 0.324089
6 1 0.255874 0.498166 0.159589
7 1 0.206039 0.143915 0.464929
ITEM: TIMESTEP
13
ITEM: NUMBER OF ATOMS
7
ITEM: BOX BOUNDS ff ff ff
-5.0000000000000000e+00 5.0000000000000000e+00
-5.0000000000000000e+00 5.0000000000000000e+00
-5.0000000000000000e+00 5.0000000000000000e+00
ITEM: ATOMS id type xs ys zs
1 1 0.619406 0.110025 0.0004612
2 1 0.341886 0.717257 0.513494
3 1 0.12738 0.128479 0.543442
4 1 0.970714 0.516777 0.388253
5 1 0.674293 0.624825 0.324219
6 1 0.255928 0.49817 0.159693
7 1 0.206011 0.143945 0.464941
ITEM: TIMESTEP
14
ITEM: NUMBER OF ATOMS
7
ITEM: BOX BOUNDS ff ff ff
-5.0000000000000000e+00 5.0000000000000000e+00
-5.0000000000000000e+00 5.0000000000000000e+00
-5.0000000000000000e+00 5.0000000000000000e+00
ITEM: ATOMS id type xs ys zs
1 1 0.619395 0.110043 0.000476471
2 1 0.341989 0.717169 0.513357
3 1 0.127417 0.1285 0.5434
4 1 0.970306 0.516923 0.388162
5 1 0.674531 0.62469 0.32436
6 1 0.255986 0.498174 0.159807
7 1 0.205994 0.143979 0.46494
ITEM: TIMESTEP
15
ITEM: NUMBER OF ATOMS
7
ITEM: BOX BOUNDS ff ff ff
-5.0000000000000000e+00 5.0000000000000000e+00
-5.0000000000000000e+00 5.0000000000000000e+00
-5.0000000000000000e+00 5.0000000000000000e+00
ITEM: ATOMS id type xs ys zs
1 1 0.619308 0.110178 0.000594121
2 1 0.342789 0.716494 0.512301
3 1 0.127606 0.128643 0.543179
4 1 0.967158 0.518046 0.387462
5 1 0.676366 0.623648 0.325449
6 1 0.256433 0.498206 0.160681
7 1 0.205957 0.144262 0.464837
ITEM: TIMESTEP
16
ITEM: NUMBER OF ATOMS
7
ITEM: BOX BOUNDS ff ff ff
-5.0000000000000000e+00 5.0000000000000000e+00
-5.0000000000000000e+00 5.0000000000000000e+00
-5.0000000000000000e+00 5.0000000000000000e+00
ITEM: ATOMS id type xs ys zs
1 1 0.619034 0.110609 0.000967734
2 1 0.345329 0.71435 0.508949
3 1 0.128025 0.129063 0.542658
4 1 0.957158 0.521615 0.385237
5 1 0.682196 0.620337 0.328908
6 1 0.257853 0.498307 0.163456
7 1 0.206023 0.145197 0.464328
ITEM: TIMESTEP
17
ITEM: NUMBER OF ATOMS
7
ITEM: BOX BOUNDS ff ff ff
-5.0000000000000000e+00 5.0000000000000000e+00
-5.0000000000000000e+00 5.0000000000000000e+00
-5.0000000000000000e+00 5.0000000000000000e+00
ITEM: ATOMS id type xs ys zs
1 1 0.618759 0.111039 0.00134102
2 1 0.347866 0.712208 0.5056
3 1 0.128113 0.129414 0.542468
4 1 0.947158 0.525184 0.383012
5 1 0.68803 0.617025 0.332365
6 1 0.259272 0.498408 0.16623
7 1 0.20642 0.146199 0.463487
ITEM: TIMESTEP
18
ITEM: NUMBER OF ATOMS
7
ITEM: BOX BOUNDS ff ff ff
-5.0000000000000000e+00 5.0000000000000000e+00
-5.0000000000000000e+00 5.0000000000000000e+00
-5.0000000000000000e+00 5.0000000000000000e+00
ITEM: ATOMS id type xs ys zs
1 1 0.618485 0.111468 0.00171318
2 1 0.350396 0.710072 0.50226
3 1 0.128434 0.129814 0.542044
4 1 0.937158 0.528753 0.380789
5 1 0.693877 0.613713 0.335817
6 1 0.260687 0.498508 0.168995
7 1 0.206581 0.147149 0.462885
ITEM: TIMESTEP
19
ITEM: NUMBER OF ATOMS
7
ITEM: BOX BOUNDS ff ff ff
-5.0000000000000000e+00 5.0000000000000000e+00
-5.0000000000000000e+00 5.0000000000000000e+00
-5.0000000000000000e+00 5.0000000000000000e+00
ITEM: ATOMS id type xs ys zs
1 1 0.618286 0.11178 0.00198414
2 1 0.352237 0.708517 0.499829
3 1 0.129079 0.130196 0.541319
4 1 0.929808 0.531375 0.379158
5 1 0.698203 0.611278 0.338342
6 1 0.261716 0.498582 0.171009
7 1 0.206288 0.147749 0.462862
ITEM: TIMESTEP
20
ITEM: NUMBER OF ATOMS
7
ITEM: BOX BOUNDS ff ff ff
-5.0000000000000000e+00 5.0000000000000000e+00
-5.0000000000000000e+00 5.0000000000000000e+00
-5.0000000000000000e+00 5.0000000000000000e+00
ITEM: ATOMS id type xs ys zs
1 1 0.618072 0.112115 0.00227489
2 1 0.354212 0.706847 0.497219
3 1 0.129646 0.130578 0.540667
4 1 0.921909 0.534193 0.377405
5 1 0.702858 0.608661 0.341054
6 1 0.262821 0.498661 0.173171
7 1 0.206098 0.148421 0.462711
ITEM: TIMESTEP
21
ITEM: NUMBER OF ATOMS
7
ITEM: BOX BOUNDS ff ff ff
-5.0000000000000000e+00 5.0000000000000000e+00
-5.0000000000000000e+00 5.0000000000000000e+00
-5.0000000000000000e+00 5.0000000000000000e+00
ITEM: ATOMS id type xs ys zs
1 1 0.618072 0.112115 0.00227491
2 1 0.354212 0.706847 0.497219
3 1 0.129573 0.130561 0.540742
4 1 0.921903 0.534195 0.377404
5 1 0.702864 0.60866 0.341055
6 1 0.262822 0.498661 0.173171
7 1 0.206171 0.148439 0.462637
ITEM: TIMESTEP
22
ITEM: NUMBER OF ATOMS
7
ITEM: BOX BOUNDS ff ff ff
-5.0000000000000000e+00 5.0000000000000000e+00
-5.0000000000000000e+00 5.0000000000000000e+00
-5.0000000000000000e+00 5.0000000000000000e+00
ITEM: ATOMS id type xs ys zs
1 1 0.618072 0.112115 0.00227506
2 1 0.354213 0.706846 0.497218
3 1 0.129116 0.130455 0.541208
4 1 0.921861 0.534209 0.377397
5 1 0.702904 0.608646 0.341062
6 1 0.262822 0.498661 0.173172
7 1 0.206629 0.148546 0.46217
ITEM: TIMESTEP
23
ITEM: NUMBER OF ATOMS
7
ITEM: BOX BOUNDS ff ff ff
-5.0000000000000000e+00 5.0000000000000000e+00
-5.0000000000000000e+00 5.0000000000000000e+00
-5.0000000000000000e+00 5.0000000000000000e+00
ITEM: ATOMS id type xs ys zs
1 1 0.618072 0.112116 0.00227518
2 1 0.354214 0.706845 0.497217
3 1 0.129097 0.13045 0.541227
4 1 0.921825 0.534221 0.377391
5 1 0.702939 0.608633 0.341069
6 1 0.262823 0.498661 0.173173
7 1 0.206647 0.14855 0.462151
ITEM: TIMESTEP
24
ITEM: NUMBER OF ATOMS
7
ITEM: BOX BOUNDS ff ff ff
-5.0000000000000000e+00 5.0000000000000000e+00
-5.0000000000000000e+00 5.0000000000000000e+00
-5.0000000000000000e+00 5.0000000000000000e+00
ITEM: ATOMS id type xs ys zs
1 1 0.618067 0.112123 0.00228206
2 1 0.354252 0.706795 0.497149
3 1 0.128821 0.130392 0.541506
4 1 0.919808 0.534904 0.377057
5 1 0.704887 0.607957 0.341419
6 1 0.262848 0.49867 0.173239
7 1 0.206933 0.148635 0.461852
ITEM: TIMESTEP
25
ITEM: NUMBER OF ATOMS
7
ITEM: BOX BOUNDS ff ff ff
-5.0000000000000000e+00 5.0000000000000000e+00
-5.0000000000000000e+00 5.0000000000000000e+00
-5.0000000000000000e+00 5.0000000000000000e+00
ITEM: ATOMS id type xs ys zs
1 1 0.618046 0.112161 0.00231608
2 1 0.354439 0.706549 0.496812
3 1 0.128516 0.130352 0.541809
4 1 0.909808 0.538292 0.375398
5 1 0.714548 0.604603 0.343155
6 1 0.262974 0.498712 0.173562
7 1 0.207286 0.148808 0.461452
ITEM: TIMESTEP
26
ITEM: NUMBER OF ATOMS
7
ITEM: BOX BOUNDS ff ff ff
-5.0000000000000000e+00 5.0000000000000000e+00
-5.0000000000000000e+00 5.0000000000000000e+00
-5.0000000000000000e+00 5.0000000000000000e+00
ITEM: ATOMS id type xs ys zs
1 1 0.618024 0.112198 0.00234972
2 1 0.354624 0.706305 0.49648
3 1 0.129192 0.13054 0.541111
4 1 0.899808 0.541679 0.373738
5 1 0.724213 0.601249 0.34489
6 1 0.263098 0.498754 0.173882
7 1 0.206658 0.148751 0.462053
ITEM: TIMESTEP
27
ITEM: NUMBER OF ATOMS
7
ITEM: BOX BOUNDS ff ff ff
-5.0000000000000000e+00 5.0000000000000000e+00
-5.0000000000000000e+00 5.0000000000000000e+00
-5.0000000000000000e+00 5.0000000000000000e+00
ITEM: ATOMS id type xs ys zs
1 1 0.618007 0.112227 0.0023757
2 1 0.354763 0.706118 0.496225
3 1 0.129344 0.1306 0.540949
4 1 0.889808 0.545067 0.372084
5 1 0.733959 0.597886 0.346601
6 1 0.263193 0.498786 0.174128
7 1 0.206542 0.148793 0.46214
ITEM: TIMESTEP
28
ITEM: NUMBER OF ATOMS
7
ITEM: BOX BOUNDS ff ff ff
-5.0000000000000000e+00 5.0000000000000000e+00
-5.0000000000000000e+00 5.0000000000000000e+00
-5.0000000000000000e+00 5.0000000000000000e+00
ITEM: ATOMS id type xs ys zs
1 1 0.617993 0.112252 0.00239799
2 1 0.35488 0.705958 0.496007
3 1 0.128956 0.130528 0.541339
4 1 0.879808 0.548455 0.370433
5 1 0.743744 0.594519 0.3483
6 1 0.263274 0.498814 0.17434
7 1 0.206961 0.148951 0.461686
ITEM: TIMESTEP
29
ITEM: NUMBER OF ATOMS
7
ITEM: BOX BOUNDS ff ff ff
-5.0000000000000000e+00 5.0000000000000000e+00
-5.0000000000000000e+00 5.0000000000000000e+00
-5.0000000000000000e+00 5.0000000000000000e+00
ITEM: ATOMS id type xs ys zs
1 1 0.61798 0.112274 0.002418
2 1 0.354985 0.705814 0.495812
3 1 0.128848 0.13052 0.541445
4 1 0.869808 0.551843 0.368785
5 1 0.75355 0.591151 0.349991
6 1 0.263347 0.498839 0.174529
7 1 0.207098 0.149036 0.461523
ITEM: TIMESTEP
30
ITEM: NUMBER OF ATOMS
7
ITEM: BOX BOUNDS ff ff ff
-5.0000000000000000e+00 5.0000000000000000e+00
-5.0000000000000000e+00 5.0000000000000000e+00
-5.0000000000000000e+00 5.0000000000000000e+00
ITEM: ATOMS id type xs ys zs
1 1 0.617975 0.112284 0.00242672
2 1 0.355031 0.705751 0.495728
3 1 0.128921 0.130545 0.541368
4 1 0.864808 0.553536 0.367963
5 1 0.758467 0.589466 0.350831
6 1 0.263379 0.498849 0.174612
7 1 0.207037 0.149045 0.461575
ITEM: TIMESTEP
31
ITEM: NUMBER OF ATOMS
7
ITEM: BOX BOUNDS ff ff ff
-5.0000000000000000e+00 5.0000000000000000e+00
-5.0000000000000000e+00 5.0000000000000000e+00
-5.0000000000000000e+00 5.0000000000000000e+00
ITEM: ATOMS id type xs ys zs
1 1 0.617975 0.112284 0.00242698
2 1 0.355031 0.70575 0.495725
3 1 0.129355 0.130648 0.540925
4 1 0.864021 0.553802 0.367836
5 1 0.759253 0.5892 0.350958
6 1 0.26338 0.49885 0.174614
7 1 0.206604 0.148943 0.462018
ITEM: TIMESTEP
32
ITEM: NUMBER OF ATOMS
7
ITEM: BOX BOUNDS ff ff ff
-5.0000000000000000e+00 5.0000000000000000e+00
-5.0000000000000000e+00 5.0000000000000000e+00
-5.0000000000000000e+00 5.0000000000000000e+00
ITEM: ATOMS id type xs ys zs
1 1 0.617975 0.112284 0.00242706
2 1 0.355031 0.705749 0.495725
3 1 0.129307 0.130637 0.540973
4 1 0.864099 0.553776 0.367848
5 1 0.759174 0.589226 0.350946
6 1 0.26338 0.49885 0.174615
7 1 0.206651 0.148954 0.461969
ITEM: TIMESTEP
33
ITEM: NUMBER OF ATOMS
7
ITEM: BOX BOUNDS ff ff ff
-5.0000000000000000e+00 5.0000000000000000e+00
-5.0000000000000000e+00 5.0000000000000000e+00
-5.0000000000000000e+00 5.0000000000000000e+00
ITEM: ATOMS id type xs ys zs
1 1 0.617975 0.112285 0.00242719
2 1 0.355032 0.705749 0.495724
3 1 0.129259 0.130626 0.541022
4 1 0.864176 0.55375 0.367861
5 1 0.759096 0.589252 0.350933
6 1 0.26338 0.49885 0.174616
7 1 0.206699 0.148966 0.46192
ITEM: TIMESTEP
34
ITEM: NUMBER OF ATOMS
7
ITEM: BOX BOUNDS ff ff ff
-5.0000000000000000e+00 5.0000000000000000e+00
-5.0000000000000000e+00 5.0000000000000000e+00
-5.0000000000000000e+00 5.0000000000000000e+00
ITEM: ATOMS id type xs ys zs
1 1 0.617974 0.112285 0.00242748
2 1 0.355032 0.705747 0.495721
3 1 0.129239 0.130621 0.541043
4 1 0.86421 0.553738 0.367866
5 1 0.759061 0.589264 0.350928
6 1 0.263381 0.49885 0.174619
7 1 0.20672 0.148972 0.461898
ITEM: TIMESTEP
35
ITEM: NUMBER OF ATOMS
7
ITEM: BOX BOUNDS ff ff ff
-5.0000000000000000e+00 5.0000000000000000e+00
-5.0000000000000000e+00 5.0000000000000000e+00
-5.0000000000000000e+00 5.0000000000000000e+00
ITEM: ATOMS id type xs ys zs
1 1 0.617974 0.112285 0.00242762
2 1 0.355032 0.705746 0.49572
3 1 0.129245 0.130623 0.541037
4 1 0.8642 0.553742 0.367865
5 1 0.75907 0.589261 0.35093
6 1 0.263381 0.49885 0.17462
7 1 0.206715 0.148971 0.461904
ITEM: TIMESTEP
36
ITEM: NUMBER OF ATOMS
7
ITEM: BOX BOUNDS ff ff ff
-5.0000000000000000e+00 5.0000000000000000e+00
-5.0000000000000000e+00 5.0000000000000000e+00
-5.0000000000000000e+00 5.0000000000000000e+00
ITEM: ATOMS id type xs ys zs
1 1 0.617974 0.112285 0.00242783
2 1 0.355033 0.705745 0.495719
3 1 0.129247 0.130624 0.541035
4 1 0.864196 0.553743 0.367864
5 1 0.759073 0.589259 0.35093
6 1 0.263382 0.498851 0.174622
7 1 0.206713 0.148971 0.461905
ITEM: TIMESTEP
37
ITEM: NUMBER OF ATOMS
7
ITEM: BOX BOUNDS ff ff ff
-5.0000000000000000e+00 5.0000000000000000e+00
-5.0000000000000000e+00 5.0000000000000000e+00
-5.0000000000000000e+00 5.0000000000000000e+00
ITEM: ATOMS id type xs ys zs
1 1 0.61796 0.112312 0.00245206
2 1 0.355074 0.705593 0.495527
3 1 0.129269 0.13065 0.541006
4 1 0.864138 0.55375 0.367858
5 1 0.759 0.589258 0.350949
6 1 0.263453 0.498878 0.174844
7 1 0.206724 0.149036 0.461866
ITEM: TIMESTEP
38
ITEM: NUMBER OF ATOMS
7
ITEM: BOX BOUNDS ff ff ff
-5.0000000000000000e+00 5.0000000000000000e+00
-5.0000000000000000e+00 5.0000000000000000e+00
-5.0000000000000000e+00 5.0000000000000000e+00
ITEM: ATOMS id type xs ys zs
1 1 0.617959 0.112315 0.00245475
2 1 0.355078 0.705577 0.495505
3 1 0.129276 0.130654 0.540999
4 1 0.864124 0.553754 0.367856
5 1 0.758999 0.589255 0.350953
6 1 0.263461 0.498881 0.174869
7 1 0.20672 0.149042 0.461867
ITEM: TIMESTEP
39
ITEM: NUMBER OF ATOMS
7
ITEM: BOX BOUNDS ff ff ff
-5.0000000000000000e+00 5.0000000000000000e+00
-5.0000000000000000e+00 5.0000000000000000e+00
-5.0000000000000000e+00 5.0000000000000000e+00
ITEM: ATOMS id type xs ys zs
1 1 0.617956 0.112321 0.00246
2 1 0.355087 0.705544 0.495464
3 1 0.129285 0.13066 0.540988
4 1 0.864106 0.553758 0.367854
5 1 0.758989 0.589253 0.350958
6 1 0.263476 0.498887 0.174917
7 1 0.206719 0.149056 0.461862
ITEM: TIMESTEP
40
ITEM: NUMBER OF ATOMS
7
ITEM: BOX BOUNDS ff ff ff
-5.0000000000000000e+00 5.0000000000000000e+00
-5.0000000000000000e+00 5.0000000000000000e+00
-5.0000000000000000e+00 5.0000000000000000e+00
ITEM: ATOMS id type xs ys zs
1 1 0.617325 0.113524 0.00354898
2 1 0.35693 0.698747 0.486819
3 1 0.130428 0.13187 0.539556
4 1 0.861256 0.554185 0.367532
5 1 0.75595 0.58909 0.35186
6 1 0.26667 0.50011 0.184917
7 1 0.207059 0.151951 0.46027
ITEM: TIMESTEP
41
ITEM: NUMBER OF ATOMS
7
ITEM: BOX BOUNDS ff ff ff
-5.0000000000000000e+00 5.0000000000000000e+00
-5.0000000000000000e+00 5.0000000000000000e+00
-5.0000000000000000e+00 5.0000000000000000e+00
ITEM: ATOMS id type xs ys zs
1 1 0.616695 0.114728 0.0046379
2 1 0.358773 0.69195 0.478175
3 1 0.131499 0.133061 0.538197
4 1 0.858528 0.554572 0.367229
5 1 0.752789 0.588968 0.352743
6 1 0.269863 0.501334 0.194917
7 1 0.207471 0.154865 0.458603
ITEM: TIMESTEP
42
ITEM: NUMBER OF ATOMS
7
ITEM: BOX BOUNDS ff ff ff
-5.0000000000000000e+00 5.0000000000000000e+00
-5.0000000000000000e+00 5.0000000000000000e+00
-5.0000000000000000e+00 5.0000000000000000e+00
ITEM: ATOMS id type xs ys zs
1 1 0.616695 0.114728 0.00463792
2 1 0.358773 0.691949 0.478175
3 1 0.131496 0.13306 0.5382
4 1 0.858535 0.55457 0.36723
5 1 0.752782 0.588971 0.352742
6 1 0.269864 0.501334 0.194917
7 1 0.207474 0.154866 0.4586
ITEM: TIMESTEP
43
ITEM: NUMBER OF ATOMS
7
ITEM: BOX BOUNDS ff ff ff
-5.0000000000000000e+00 5.0000000000000000e+00
-5.0000000000000000e+00 5.0000000000000000e+00
-5.0000000000000000e+00 5.0000000000000000e+00
ITEM: ATOMS id type xs ys zs
1 1 0.616695 0.114728 0.00463797
2 1 0.358773 0.691949 0.478174
3 1 0.13149 0.133058 0.538206
4 1 0.858547 0.554566 0.367232
5 1 0.752769 0.588975 0.352741
6 1 0.269864 0.501334 0.194918
7 1 0.20748 0.154868 0.458594
ITEM: TIMESTEP
44
ITEM: NUMBER OF ATOMS
7
ITEM: BOX BOUNDS ff ff ff
-5.0000000000000000e+00 5.0000000000000000e+00
-5.0000000000000000e+00 5.0000000000000000e+00
-5.0000000000000000e+00 5.0000000000000000e+00
ITEM: ATOMS id type xs ys zs
1 1 0.616694 0.114728 0.00463835
2 1 0.358773 0.691945 0.478169
3 1 0.131458 0.13305 0.53824
4 1 0.858614 0.554544 0.367241
5 1 0.752699 0.588997 0.352732
6 1 0.269866 0.501336 0.194924
7 1 0.207513 0.154878 0.458559
ITEM: TIMESTEP
45
ITEM: NUMBER OF ATOMS
7
ITEM: BOX BOUNDS ff ff ff
-5.0000000000000000e+00 5.0000000000000000e+00
-5.0000000000000000e+00 5.0000000000000000e+00
-5.0000000000000000e+00 5.0000000000000000e+00
ITEM: ATOMS id type xs ys zs
1 1 0.616694 0.114728 0.00463844
2 1 0.358773 0.691944 0.478167
3 1 0.131466 0.133052 0.538232
4 1 0.858597 0.554549 0.367239
5 1 0.752716 0.588992 0.352734
6 1 0.269866 0.501336 0.194926
7 1 0.207505 0.154876 0.458567
ITEM: TIMESTEP
46
ITEM: NUMBER OF ATOMS
7
ITEM: BOX BOUNDS ff ff ff
-5.0000000000000000e+00 5.0000000000000000e+00
-5.0000000000000000e+00 5.0000000000000000e+00
-5.0000000000000000e+00 5.0000000000000000e+00
ITEM: ATOMS id type xs ys zs
1 1 0.616694 0.114729 0.00463858
2 1 0.358773 0.691942 0.478165
3 1 0.131472 0.133054 0.538225
4 1 0.858584 0.554553 0.367237
5 1 0.752728 0.588987 0.352736
6 1 0.269867 0.501337 0.194928
7 1 0.207499 0.154875 0.458573
ITEM: TIMESTEP
47
ITEM: NUMBER OF ATOMS
7
ITEM: BOX BOUNDS ff ff ff
-5.0000000000000000e+00 5.0000000000000000e+00
-5.0000000000000000e+00 5.0000000000000000e+00
-5.0000000000000000e+00 5.0000000000000000e+00
ITEM: ATOMS id type xs ys zs
1 1 0.616694 0.114729 0.00463882
2 1 0.358773 0.69194 0.478162
3 1 0.131475 0.133055 0.538222
4 1 0.858578 0.554555 0.367236
5 1 0.752733 0.588986 0.352737
6 1 0.269868 0.501338 0.194932
7 1 0.207497 0.154875 0.458576
ITEM: TIMESTEP
48
ITEM: NUMBER OF ATOMS
7
ITEM: BOX BOUNDS ff ff ff
-5.0000000000000000e+00 5.0000000000000000e+00
-5.0000000000000000e+00 5.0000000000000000e+00
-5.0000000000000000e+00 5.0000000000000000e+00
ITEM: ATOMS id type xs ys zs
1 1 0.61668 0.114757 0.00466503
2 1 0.358786 0.691653 0.477785
3 1 0.131501 0.133087 0.538189
4 1 0.858506 0.554565 0.36723
5 1 0.75263 0.588986 0.352761
6 1 0.270001 0.501469 0.195346
7 1 0.207513 0.154961 0.458527
ITEM: TIMESTEP
49
ITEM: NUMBER OF ATOMS
7
ITEM: BOX BOUNDS ff ff ff
-5.0000000000000000e+00 5.0000000000000000e+00
-5.0000000000000000e+00 5.0000000000000000e+00
-5.0000000000000000e+00 5.0000000000000000e+00
ITEM: ATOMS id type xs ys zs
1 1 0.616676 0.114764 0.00467185
2 1 0.35879 0.691578 0.477687
3 1 0.131518 0.133099 0.538169
4 1 0.858465 0.554575 0.367225
5 1 0.752626 0.588978 0.35277
6 1 0.270036 0.501503 0.195454
7 1 0.207506 0.154981 0.458525
ITEM: TIMESTEP
50
ITEM: NUMBER OF ATOMS
7
ITEM: BOX BOUNDS ff ff ff
-5.0000000000000000e+00 5.0000000000000000e+00
-5.0000000000000000e+00 5.0000000000000000e+00
-5.0000000000000000e+00 5.0000000000000000e+00
ITEM: ATOMS id type xs ys zs
1 1 0.616665 0.114785 0.00469201
2 1 0.3588 0.691357 0.477397
3 1 0.131553 0.133128 0.538128
4 1 0.858379 0.554592 0.367216
5 1 0.752578 0.588969 0.352793
6 1 0.270139 0.501603 0.195774
7 1 0.207503 0.155043 0.458504
ITEM: TIMESTEP
51
ITEM: NUMBER OF ATOMS
7
ITEM: BOX BOUNDS ff ff ff
-5.0000000000000000e+00 5.0000000000000000e+00
-5.0000000000000000e+00 5.0000000000000000e+00
-5.0000000000000000e+00 5.0000000000000000e+00
ITEM: ATOMS id type xs ys zs
1 1 0.616474 0.11516 0.00504393
2 1 0.358974 0.687498 0.472333
3 1 0.132025 0.133597 0.537551
4 1 0.857158 0.554809 0.367093
5 1 0.751461 0.588886 0.353151
6 1 0.271932 0.503361 0.201352
7 1 0.207593 0.156166 0.45798
ITEM: TIMESTEP
52
ITEM: NUMBER OF ATOMS
7
ITEM: BOX BOUNDS ff ff ff
-5.0000000000000000e+00 5.0000000000000000e+00
-5.0000000000000000e+00 5.0000000000000000e+00
-5.0000000000000000e+00 5.0000000000000000e+00
ITEM: ATOMS id type xs ys zs
1 1 0.616132 0.115831 0.00567481
2 1 0.359286 0.68058 0.463254
3 1 0.132806 0.134419 0.536585
4 1 0.855107 0.555151 0.36689
5 1 0.74932 0.588783 0.353774
6 1 0.275147 0.506514 0.211352
7 1 0.20782 0.158199 0.456973
ITEM: TIMESTEP
53
ITEM: NUMBER OF ATOMS
7
ITEM: BOX BOUNDS ff ff ff
-5.0000000000000000e+00 5.0000000000000000e+00
-5.0000000000000000e+00 5.0000000000000000e+00
-5.0000000000000000e+00 5.0000000000000000e+00
ITEM: ATOMS id type xs ys zs
1 1 0.61579 0.116502 0.00630548
2 1 0.359597 0.673661 0.454174
3 1 0.133451 0.135199 0.535763
4 1 0.853354 0.555399 0.366725
5 1 0.746882 0.588774 0.354361
6 1 0.278362 0.509667 0.221352
7 1 0.208181 0.160274 0.455824
ITEM: TIMESTEP
54
ITEM: NUMBER OF ATOMS
7
ITEM: BOX BOUNDS ff ff ff
-5.0000000000000000e+00 5.0000000000000000e+00
-5.0000000000000000e+00 5.0000000000000000e+00
-5.0000000000000000e+00 5.0000000000000000e+00
ITEM: ATOMS id type xs ys zs
1 1 0.615453 0.117162 0.00692589
2 1 0.359851 0.666738 0.445081
3 1 0.134274 0.136029 0.534753
4 1 0.851406 0.555713 0.366536
5 1 0.744698 0.588696 0.354963
6 1 0.281584 0.512881 0.231352
7 1 0.208351 0.162258 0.454892
ITEM: TIMESTEP
55
ITEM: NUMBER OF ATOMS
7
ITEM: BOX BOUNDS ff ff ff
-5.0000000000000000e+00 5.0000000000000000e+00
-5.0000000000000000e+00 5.0000000000000000e+00
-5.0000000000000000e+00 5.0000000000000000e+00
ITEM: ATOMS id type xs ys zs
1 1 0.615117 0.117822 0.00754587
2 1 0.360103 0.659814 0.435987
3 1 0.135053 0.136844 0.533792
4 1 0.849447 0.55603 0.366346
5 1 0.742527 0.588615 0.355567
6 1 0.284807 0.516098 0.241352
7 1 0.208564 0.164255 0.453913
ITEM: TIMESTEP
56
ITEM: NUMBER OF ATOMS
7
ITEM: BOX BOUNDS ff ff ff
-5.0000000000000000e+00 5.0000000000000000e+00
-5.0000000000000000e+00 5.0000000000000000e+00
-5.0000000000000000e+00 5.0000000000000000e+00
ITEM: ATOMS id type xs ys zs
1 1 0.614782 0.118479 0.0081643
2 1 0.360345 0.652888 0.426892
3 1 0.135717 0.137615 0.532954
4 1 0.847466 0.556355 0.366154
5 1 0.740386 0.588526 0.356171
6 1 0.288031 0.519325 0.251352
7 1 0.208889 0.16629 0.452816
ITEM: TIMESTEP
57
ITEM: NUMBER OF ATOMS
7
ITEM: BOX BOUNDS ff ff ff
-5.0000000000000000e+00 5.0000000000000000e+00
-5.0000000000000000e+00 5.0000000000000000e+00
-5.0000000000000000e+00 5.0000000000000000e+00
ITEM: ATOMS id type xs ys zs
1 1 0.614477 0.119079 0.00872883
2 1 0.360216 0.645897 0.41772
3 1 0.136296 0.138309 0.53222
4 1 0.845591 0.55667 0.365973
5 1 0.738481 0.588425 0.356729
6 1 0.29134 0.522931 0.261352
7 1 0.209217 0.168166 0.451781
ITEM: TIMESTEP
58
ITEM: NUMBER OF ATOMS
7
ITEM: BOX BOUNDS ff ff ff
-5.0000000000000000e+00 5.0000000000000000e+00
-5.0000000000000000e+00 5.0000000000000000e+00
-5.0000000000000000e+00 5.0000000000000000e+00
ITEM: ATOMS id type xs ys zs
1 1 0.614175 0.119671 0.00928586
2 1 0.36003 0.638893 0.408537
3 1 0.137052 0.13907 0.531292
4 1 0.843858 0.556947 0.365805
5 1 0.736481 0.588361 0.357268
6 1 0.294664 0.526593 0.271352
7 1 0.209356 0.169943 0.450963
ITEM: TIMESTEP
59
ITEM: NUMBER OF ATOMS
7
ITEM: BOX BOUNDS ff ff ff
-5.0000000000000000e+00 5.0000000000000000e+00
-5.0000000000000000e+00 5.0000000000000000e+00
-5.0000000000000000e+00 5.0000000000000000e+00
ITEM: ATOMS id type xs ys zs
1 1 0.613893 0.120226 0.00980825
2 1 0.359562 0.631813 0.399304
3 1 0.137943 0.139862 0.53022
4 1 0.842312 0.557183 0.365653
5 1 0.734522 0.588323 0.357768
6 1 0.29808 0.530536 0.281352
7 1 0.209306 0.171533 0.450398
ITEM: TIMESTEP
60
ITEM: NUMBER OF ATOMS
7
ITEM: BOX BOUNDS ff ff ff
-5.0000000000000000e+00 5.0000000000000000e+00
-5.0000000000000000e+00 5.0000000000000000e+00
-5.0000000000000000e+00 5.0000000000000000e+00
ITEM: ATOMS id type xs ys zs
1 1 0.613618 0.120766 0.010316
2 1 0.358961 0.624691 0.39005
3 1 0.138655 0.140564 0.529349
4 1 0.840726 0.557436 0.3655
5 1 0.7327 0.588263 0.358259
6 1 0.301547 0.53461 0.291352
7 1 0.20941 0.173147 0.449677
ITEM: TIMESTEP
61
ITEM: NUMBER OF ATOMS
7
ITEM: BOX BOUNDS ff ff ff
-5.0000000000000000e+00 5.0000000000000000e+00
-5.0000000000000000e+00 5.0000000000000000e+00
-5.0000000000000000e+00 5.0000000000000000e+00
ITEM: ATOMS id type xs ys zs
1 1 0.613351 0.121291 0.0108103
2 1 0.358222 0.617516 0.380777
3 1 0.139258 0.141205 0.528604
4 1 0.839134 0.557696 0.365347
5 1 0.730973 0.588191 0.35874
6 1 0.305076 0.538817 0.301352
7 1 0.209603 0.174761 0.448873
ITEM: TIMESTEP
62
ITEM: NUMBER OF ATOMS
7
ITEM: BOX BOUNDS ff ff ff
-5.0000000000000000e+00 5.0000000000000000e+00
-5.0000000000000000e+00 5.0000000000000000e+00
-5.0000000000000000e+00 5.0000000000000000e+00
ITEM: ATOMS id type xs ys zs
1 1 0.613219 0.12155 0.0110542
2 1 0.357729 0.613785 0.376009
3 1 0.139519 0.141504 0.528278
4 1 0.838327 0.55783 0.36527
5 1 0.730143 0.588149 0.358979
6 1 0.306946 0.541083 0.306477
7 1 0.209735 0.175575 0.448435
ITEM: TIMESTEP
63
ITEM: NUMBER OF ATOMS
7
ITEM: BOX BOUNDS ff ff ff
-5.0000000000000000e+00 5.0000000000000000e+00
-5.0000000000000000e+00 5.0000000000000000e+00
-5.0000000000000000e+00 5.0000000000000000e+00
ITEM: ATOMS id type xs ys zs
1 1 0.613219 0.12155 0.0110544
2 1 0.357653 0.613674 0.375903
3 1 0.13936 0.141427 0.528459
4 1 0.83822 0.55786 0.365264
5 1 0.730247 0.588119 0.358985
6 1 0.307024 0.541193 0.306584
7 1 0.209895 0.175654 0.448253
ITEM: TIMESTEP
64
ITEM: NUMBER OF ATOMS
7
ITEM: BOX BOUNDS ff ff ff
-5.0000000000000000e+00 5.0000000000000000e+00
-5.0000000000000000e+00 5.0000000000000000e+00
-5.0000000000000000e+00 5.0000000000000000e+00
ITEM: ATOMS id type xs ys zs
1 1 0.613219 0.121551 0.0110547
2 1 0.357628 0.613633 0.375865
3 1 0.139326 0.141411 0.528498
4 1 0.838182 0.55787 0.365262
5 1 0.73028 0.588109 0.358988
6 1 0.307052 0.541232 0.306623
7 1 0.209929 0.175672 0.448213
ITEM: TIMESTEP
65
ITEM: NUMBER OF ATOMS
7
ITEM: BOX BOUNDS ff ff ff
-5.0000000000000000e+00 5.0000000000000000e+00
-5.0000000000000000e+00 5.0000000000000000e+00
-5.0000000000000000e+00 5.0000000000000000e+00
ITEM: ATOMS id type xs ys zs
1 1 0.613219 0.121551 0.0110549
2 1 0.357636 0.613639 0.375872
3 1 0.139334 0.141415 0.528489
4 1 0.838188 0.557869 0.365262
5 1 0.730271 0.588111 0.358987
6 1 0.307048 0.541223 0.306617