ITEM: TIMESTEP
0
ITEM: NUMBER OF ATOMS
8
ITEM: BOX BOUNDS ff ff ff
-5.0000000000000000e+00 5.0000000000000000e+00
-5.0000000000000000e+00 5.0000000000000000e+00
-5.0000000000000000e+00 5.0000000000000000e+00
ITEM: ATOMS id type xs ys zs
1 1 0.223454 0.595245 0.288558
2 1 0.789421 0.793604 0.107561
3 1 0.770695 0.0637561 0.549038
4 1 0.675784 0.899083 0.880728
5 1 0.38801 0.291295 0.790643
6 1 0.344805 0.133143 0.741404
7 1 0.775973 0.77562 0.851489
8 1 0.980443 0.309834 0.385726
ITEM: TIMESTEP
1
ITEM: NUMBER OF ATOMS
8
ITEM: BOX BOUNDS ff ff ff
-5.0000000000000000e+00 5.0000000000000000e+00
-5.0000000000000000e+00 5.0000000000000000e+00
-5.0000000000000000e+00 5.0000000000000000e+00
ITEM: ATOMS id type xs ys zs
1 1 0.223456 0.595244 0.288559
2 1 0.78942 0.793602 0.107562
3 1 0.770713 0.0637954 0.54902
4 1 0.683898 0.889083 0.878359
5 1 0.38572 0.282892 0.788024
6 1 0.347108 0.141546 0.744016
7 1 0.767858 0.785618 0.853856
8 1 0.980412 0.309801 0.385749
ITEM: TIMESTEP
2
ITEM: NUMBER OF ATOMS
8
ITEM: BOX BOUNDS ff ff ff
-5.0000000000000000e+00 5.0000000000000000e+00
-5.0000000000000000e+00 5.0000000000000000e+00
-5.0000000000000000e+00 5.0000000000000000e+00
ITEM: ATOMS id type xs ys zs
1 1 0.223458 0.595244 0.288561
2 1 0.78942 0.793601 0.107564
3 1 0.770727 0.0638243 0.549007
4 1 0.692012 0.879083 0.875991
5 1 0.383656 0.275323 0.785665
6 1 0.349181 0.149114 0.74637
7 1 0.759743 0.795616 0.856223
8 1 0.980388 0.309776 0.385766
ITEM: TIMESTEP
3
ITEM: NUMBER OF ATOMS
8
ITEM: BOX BOUNDS ff ff ff
-5.0000000000000000e+00 5.0000000000000000e+00
-5.0000000000000000e+00 5.0000000000000000e+00
-5.0000000000000000e+00 5.0000000000000000e+00
ITEM: ATOMS id type xs ys zs
1 1 0.223458 0.595244 0.288561
2 1 0.78942 0.793601 0.107564
3 1 0.770729 0.0638268 0.549006
4 1 0.690457 0.880998 0.876444
5 1 0.383126 0.273383 0.78506
6 1 0.349712 0.151055 0.746974
7 1 0.761298 0.7937 0.85577
8 1 0.980386 0.309774 0.385768
ITEM: TIMESTEP
4
ITEM: NUMBER OF ATOMS
8
ITEM: BOX BOUNDS ff ff ff
-5.0000000000000000e+00 5.0000000000000000e+00
-5.0000000000000000e+00 5.0000000000000000e+00
-5.0000000000000000e+00 5.0000000000000000e+00
ITEM: ATOMS id type xs ys zs
1 1 0.223459 0.595243 0.288561
2 1 0.78942 0.7936 0.107564
3 1 0.770734 0.0638387 0.549
4 1 0.690494 0.880952 0.876433
5 1 0.380396 0.263383 0.781946
6 1 0.352445 0.161055 0.750086
7 1 0.76126 0.793745 0.85578
8 1 0.980377 0.309764 0.385775
ITEM: TIMESTEP
5
ITEM: NUMBER OF ATOMS
8
ITEM: BOX BOUNDS ff ff ff
-5.0000000000000000e+00 5.0000000000000000e+00
-5.0000000000000000e+00 5.0000000000000000e+00
-5.0000000000000000e+00 5.0000000000000000e+00
ITEM: ATOMS id type xs ys zs
1 1 0.223459 0.595243 0.288561
2 1 0.78942 0.7936 0.107564
3 1 0.770735 0.06384 0.549
4 1 0.690688 0.880713 0.876376
5 1 0.380343 0.263189 0.781885
6 1 0.352499 0.161248 0.750146
7 1 0.761066 0.793984 0.855837
8 1 0.980376 0.309763 0.385776
ITEM: TIMESTEP
6
ITEM: NUMBER OF ATOMS
8
ITEM: BOX BOUNDS ff ff ff
-5.0000000000000000e+00 5.0000000000000000e+00
-5.0000000000000000e+00 5.0000000000000000e+00
-5.0000000000000000e+00 5.0000000000000000e+00
ITEM: ATOMS id type xs ys zs
1 1 0.223459 0.595243 0.288561
2 1 0.789419 0.7936 0.107565
3 1 0.770736 0.063842 0.548999
4 1 0.691026 0.880296 0.876278
5 1 0.380554 0.26396 0.782125
6 1 0.352288 0.160477 0.749906
7 1 0.760728 0.794401 0.855935
8 1 0.980374 0.309761 0.385777
ITEM: TIMESTEP
7
ITEM: NUMBER OF ATOMS
8
ITEM: BOX BOUNDS ff ff ff
-5.0000000000000000e+00 5.0000000000000000e+00
-5.0000000000000000e+00 5.0000000000000000e+00
-5.0000000000000000e+00 5.0000000000000000e+00
ITEM: ATOMS id type xs ys zs
1 1 0.223459 0.595243 0.288562
2 1 0.789419 0.7936 0.107565
3 1 0.770737 0.063844 0.548998
4 1 0.691098 0.880208 0.876257
5 1 0.380586 0.264077 0.782161
6 1 0.352257 0.16036 0.749869
7 1 0.760656 0.794489 0.855956
8 1 0.980373 0.30976 0.385778
ITEM: TIMESTEP
8
ITEM: NUMBER OF ATOMS
8
ITEM: BOX BOUNDS ff ff ff
-5.0000000000000000e+00 5.0000000000000000e+00
-5.0000000000000000e+00 5.0000000000000000e+00
-5.0000000000000000e+00 5.0000000000000000e+00
ITEM: ATOMS id type xs ys zs
1 1 0.223459 0.595243 0.288562
2 1 0.789419 0.7936 0.107565
3 1 0.770738 0.0638465 0.548997
4 1 0.6911 0.880205 0.876256
5 1 0.380586 0.264075 0.78216
6 1 0.352258 0.160362 0.74987
7 1 0.760654 0.794491 0.855957
8 1 0.980371 0.309758 0.385779
ITEM: TIMESTEP
9
ITEM: NUMBER OF ATOMS
8
ITEM: BOX BOUNDS ff ff ff
-5.0000000000000000e+00 5.0000000000000000e+00
-5.0000000000000000e+00 5.0000000000000000e+00
-5.0000000000000000e+00 5.0000000000000000e+00
ITEM: ATOMS id type xs ys zs
1 1 0.223459 0.595243 0.288562
2 1 0.789419 0.7936 0.107565
3 1 0.770739 0.063849 0.548996
4 1 0.691096 0.88021 0.876257
5 1 0.380585 0.264069 0.782158
6 1 0.35226 0.160368 0.749871
7 1 0.760658 0.794487 0.855956
8 1 0.980369 0.309755 0.385781
ITEM: TIMESTEP
10
ITEM: NUMBER OF ATOMS
8
ITEM: BOX BOUNDS ff ff ff
-5.0000000000000000e+00 5.0000000000000000e+00
-5.0000000000000000e+00 5.0000000000000000e+00
-5.0000000000000000e+00 5.0000000000000000e+00
ITEM: ATOMS id type xs ys zs
1 1 0.223466 0.59524 0.288567
2 1 0.789418 0.793594 0.107571
3 1 0.7708 0.0639802 0.548938
4 1 0.691087 0.880217 0.876258
5 1 0.380606 0.264082 0.78215
6 1 0.35228 0.160352 0.749853
7 1 0.760665 0.794471 0.85595
8 1 0.980264 0.309645 0.385858
ITEM: TIMESTEP
11
ITEM: NUMBER OF ATOMS
8
ITEM: BOX BOUNDS ff ff ff
-5.0000000000000000e+00 5.0000000000000000e+00
-5.0000000000000000e+00 5.0000000000000000e+00
-5.0000000000000000e+00 5.0000000000000000e+00
ITEM: ATOMS id type xs ys zs
1 1 0.223983 0.594987 0.288995
2 1 0.789279 0.793116 0.10803
3 1 0.775469 0.0739802 0.544549
4 1 0.691048 0.87992 0.876084
5 1 0.381947 0.264075 0.781223
6 1 0.354093 0.160128 0.748791
7 1 0.760474 0.794159 0.855717
8 1 0.972292 0.301216 0.391757
ITEM: TIMESTEP
12
ITEM: NUMBER OF ATOMS
8
ITEM: BOX BOUNDS ff ff ff
-5.0000000000000000e+00 5.0000000000000000e+00
-5.0000000000000000e+00 5.0000000000000000e+00
-5.0000000000000000e+00 5.0000000000000000e+00
ITEM: ATOMS id type xs ys zs
1 1 0.224311 0.594826 0.289267
2 1 0.789191 0.792813 0.108322
3 1 0.77844 0.0803416 0.541756
4 1 0.690973 0.879793 0.875989
5 1 0.382729 0.263807 0.780551
6 1 0.355317 0.16025 0.748198
7 1 0.760403 0.793898 0.855553
8 1 0.967221 0.295853 0.395509
ITEM: TIMESTEP
13
ITEM: NUMBER OF ATOMS
8
ITEM: BOX BOUNDS ff ff ff
-5.0000000000000000e+00 5.0000000000000000e+00
-5.0000000000000000e+00 5.0000000000000000e+00
-5.0000000000000000e+00 5.0000000000000000e+00
ITEM: ATOMS id type xs ys zs
1 1 0.224827 0.594573 0.289695
2 1 0.789053 0.792336 0.10878
3 1 0.783112 0.0903416 0.537364
4 1 0.690873 0.879572 0.875834
5 1 0.383991 0.263511 0.779535
6 1 0.357206 0.160315 0.747227
7 1 0.760274 0.79351 0.855302
8 1 0.959248 0.287422 0.401409
ITEM: TIMESTEP
14
ITEM: NUMBER OF ATOMS
8
ITEM: BOX BOUNDS ff ff ff
-5.0000000000000000e+00 5.0000000000000000e+00
-5.0000000000000000e+00 5.0000000000000000e+00
-5.0000000000000000e+00 5.0000000000000000e+00
ITEM: ATOMS id type xs ys zs
1 1 0.225344 0.59432 0.290122
2 1 0.788915 0.791859 0.109238
3 1 0.787785 0.100342 0.532973
4 1 0.690784 0.879336 0.875675
5 1 0.385274 0.263295 0.778544
6 1 0.359075 0.160301 0.746231
7 1 0.760133 0.793137 0.855055
8 1 0.951276 0.278992 0.407308
ITEM: TIMESTEP
15
ITEM: NUMBER OF ATOMS
8
ITEM: BOX BOUNDS ff ff ff
-5.0000000000000000e+00 5.0000000000000000e+00
-5.0000000000000000e+00 5.0000000000000000e+00
-5.0000000000000000e+00 5.0000000000000000e+00
ITEM: ATOMS id type xs ys zs
1 1 0.22586 0.594067 0.29055
2 1 0.788777 0.791382 0.109697
3 1 0.792459 0.110342 0.52858
4 1 0.690723 0.879068 0.875509
5 1 0.386603 0.263264 0.777611
6 1 0.360896 0.160101 0.745177
7 1 0.759965 0.792797 0.854815
8 1 0.943303 0.270561 0.413208
ITEM: TIMESTEP
16
ITEM: NUMBER OF ATOMS
8
ITEM: BOX BOUNDS ff ff ff
-5.0000000000000000e+00 5.0000000000000000e+00
-5.0000000000000000e+00 5.0000000000000000e+00
-5.0000000000000000e+00 5.0000000000000000e+00
ITEM: ATOMS id type xs ys zs
1 1 0.22586 0.594067 0.29055
2 1 0.788777 0.791382 0.109697
3 1 0.792465 0.110349 0.528575
4 1 0.690749 0.879034 0.875501
5 1 0.386646 0.263434 0.777664
6 1 0.360854 0.159931 0.745123
7 1 0.759938 0.79283 0.854823
8 1 0.943296 0.270554 0.413213
ITEM: TIMESTEP
17
ITEM: NUMBER OF ATOMS
8
ITEM: BOX BOUNDS ff ff ff
-5.0000000000000000e+00 5.0000000000000000e+00
-5.0000000000000000e+00 5.0000000000000000e+00
-5.0000000000000000e+00 5.0000000000000000e+00
ITEM: ATOMS id type xs ys zs
1 1 0.22586 0.594067 0.29055
2 1 0.788777 0.791382 0.109697
3 1 0.792482 0.110367 0.528562
4 1 0.6908 0.878972 0.875486
5 1 0.386718 0.263723 0.777755
6 1 0.360782 0.159642 0.745032
7 1 0.759888 0.792893 0.854838
8 1 0.943279 0.270535 0.413227
ITEM: TIMESTEP
18
ITEM: NUMBER OF ATOMS
8
ITEM: BOX BOUNDS ff ff ff
-5.0000000000000000e+00 5.0000000000000000e+00
-5.0000000000000000e+00 5.0000000000000000e+00
-5.0000000000000000e+00 5.0000000000000000e+00
ITEM: ATOMS id type xs ys zs
1 1 0.22586 0.594067 0.29055
2 1 0.788777 0.791382 0.109697
3 1 0.792535 0.110426 0.528521
4 1 0.690834 0.878929 0.875475
5 1 0.386749 0.263844 0.777792
6 1 0.360753 0.159521 0.744994
7 1 0.759854 0.792935 0.854848
8 1 0.943224 0.270477 0.413269
ITEM: TIMESTEP
19
ITEM: NUMBER OF ATOMS
8
ITEM: BOX BOUNDS ff ff ff
-5.0000000000000000e+00 5.0000000000000000e+00
-5.0000000000000000e+00 5.0000000000000000e+00
-5.0000000000000000e+00 5.0000000000000000e+00
ITEM: ATOMS id type xs ys zs
1 1 0.22586 0.594067 0.29055
2 1 0.788776 0.791382 0.109697
3 1 0.792578 0.110473 0.528488
4 1 0.690792 0.878981 0.875488
5 1 0.386713 0.263697 0.777746
6 1 0.36079 0.159668 0.745039
7 1 0.759896 0.792883 0.854836
8 1 0.943179 0.27043 0.413302
ITEM: TIMESTEP
20
ITEM: NUMBER OF ATOMS
8
ITEM: BOX BOUNDS ff ff ff
-5.0000000000000000e+00 5.0000000000000000e+00
-5.0000000000000000e+00 5.0000000000000000e+00
-5.0000000000000000e+00 5.0000000000000000e+00
ITEM: ATOMS id type xs ys zs
1 1 0.225861 0.594067 0.29055
2 1 0.788776 0.791382 0.109697
3 1 0.792626 0.110525 0.528451
4 1 0.690839 0.878922 0.875474
5 1 0.386755 0.263864 0.777797
6 1 0.360749 0.159502 0.744987
7 1 0.759848 0.792942 0.85485
8 1 0.94313 0.270379 0.41334
ITEM: TIMESTEP
21
ITEM: NUMBER OF ATOMS
8
ITEM: BOX BOUNDS ff ff ff
-5.0000000000000000e+00 5.0000000000000000e+00
-5.0000000000000000e+00 5.0000000000000000e+00
-5.0000000000000000e+00 5.0000000000000000e+00
ITEM: ATOMS id type xs ys zs
1 1 0.225861 0.594067 0.290551
2 1 0.788776 0.791381 0.109698
3 1 0.792671 0.110574 0.528416
4 1 0.690784 0.87899 0.87549
5 1 0.386708 0.263673 0.777737
6 1 0.360797 0.159693 0.745046
7 1 0.759903 0.792873 0.854833
8 1 0.943084 0.27033 0.413375
ITEM: TIMESTEP
22
ITEM: NUMBER OF ATOMS
8
ITEM: BOX BOUNDS ff ff ff
-5.0000000000000000e+00 5.0000000000000000e+00
-5.0000000000000000e+00 5.0000000000000000e+00
-5.0000000000000000e+00 5.0000000000000000e+00
ITEM: ATOMS id type xs ys zs
1 1 0.225861 0.594066 0.290551
2 1 0.788776 0.791381 0.109698
3 1 0.792715 0.110622 0.528383
4 1 0.690842 0.878918 0.875472
5 1 0.386759 0.263875 0.7778
6 1 0.360748 0.159491 0.744982
7 1 0.759845 0.792945 0.85485
8 1 0.943039 0.270283 0.413409
ITEM: TIMESTEP
23
ITEM: NUMBER OF ATOMS
8
ITEM: BOX BOUNDS ff ff ff
-5.0000000000000000e+00 5.0000000000000000e+00
-5.0000000000000000e+00 5.0000000000000000e+00
-5.0000000000000000e+00 5.0000000000000000e+00
ITEM: ATOMS id type xs ys zs
1 1 0.225861 0.594066 0.290551
2 1 0.788776 0.791381 0.109698
3 1 0.792757 0.110668 0.52835
4 1 0.690785 0.878989 0.87549
5 1 0.38671 0.263676 0.777737
6 1 0.360798 0.159689 0.745045
7 1 0.759902 0.792874 0.854833
8 1 0.942996 0.270237 0.413442
ITEM: TIMESTEP
24
ITEM: NUMBER OF ATOMS
8
ITEM: BOX BOUNDS ff ff ff
-5.0000000000000000e+00 5.0000000000000000e+00
-5.0000000000000000e+00 5.0000000000000000e+00
-5.0000000000000000e+00 5.0000000000000000e+00
ITEM: ATOMS id type xs ys zs
1 1 0.225861 0.594066 0.290551
2 1 0.788776 0.791381 0.109698
3 1 0.792801 0.110716 0.528316
4 1 0.690841 0.878919 0.875473
5 1 0.386759 0.263871 0.777798
6 1 0.36075 0.159495 0.744983
7 1 0.759846 0.792944 0.85485
8 1 0.942951 0.27019 0.413477
ITEM: TIMESTEP
25
ITEM: NUMBER OF ATOMS
8
ITEM: BOX BOUNDS ff ff ff
-5.0000000000000000e+00 5.0000000000000000e+00
-5.0000000000000000e+00 5.0000000000000000e+00
-5.0000000000000000e+00 5.0000000000000000e+00
ITEM: ATOMS id type xs ys zs
1 1 0.225862 0.594066 0.290551
2 1 0.788776 0.791381 0.109698
3 1 0.792844 0.110764 0.528283
4 1 0.690784 0.878989 0.87549
5 1 0.38671 0.263675 0.777736
6 1 0.3608 0.159691 0.745044
7 1 0.759903 0.792873 0.854833
8 1 0.942906 0.270142 0.413511
ITEM: TIMESTEP
26
ITEM: NUMBER OF ATOMS
8
ITEM: BOX BOUNDS ff ff ff
-5.0000000000000000e+00 5.0000000000000000e+00
-5.0000000000000000e+00 5.0000000000000000e+00
-5.0000000000000000e+00 5.0000000000000000e+00
ITEM: ATOMS id type xs ys zs
1 1 0.225862 0.594066 0.290551
2 1 0.788776 0.791381 0.109698
3 1 0.792888 0.110812 0.528249
4 1 0.690841 0.878918 0.875472
5 1 0.38676 0.263871 0.777797
6 1 0.360751 0.159495 0.744982
7 1 0.759846 0.792944 0.85485
8 1 0.942861 0.270095 0.413545
ITEM: TIMESTEP
27
ITEM: NUMBER OF ATOMS
8
ITEM: BOX BOUNDS ff ff ff
-5.0000000000000000e+00 5.0000000000000000e+00
-5.0000000000000000e+00 5.0000000000000000e+00
-5.0000000000000000e+00 5.0000000000000000e+00
ITEM: ATOMS id type xs ys zs
1 1 0.225862 0.594066 0.290552
2 1 0.788776 0.79138 0.109699
3 1 0.792932 0.11086 0.528215
4 1 0.690784 0.878989 0.875489
5 1 0.386711 0.263675 0.777735
6 1 0.360801 0.159691 0.745043
7 1 0.759903 0.792873 0.854833
8 1 0.942816 0.270047 0.41358
ITEM: TIMESTEP
28
ITEM: NUMBER OF ATOMS
8
ITEM: BOX BOUNDS ff ff ff
-5.0000000000000000e+00 5.0000000000000000e+00
-5.0000000000000000e+00 5.0000000000000000e+00
-5.0000000000000000e+00 5.0000000000000000e+00
ITEM: ATOMS id type xs ys zs
1 1 0.225862 0.594066 0.290552
2 1 0.788776 0.79138 0.109699
3 1 0.792976 0.110908 0.528181
4 1 0.690841 0.878918 0.875472
5 1 0.386761 0.263871 0.777796
6 1 0.360753 0.159495 0.744981
7 1 0.759846 0.792943 0.854849
8 1 0.94277 0.269999 0.413614
ITEM: TIMESTEP
29
ITEM: NUMBER OF ATOMS
8
ITEM: BOX BOUNDS ff ff ff
-5.0000000000000000e+00 5.0000000000000000e+00
-5.0000000000000000e+00 5.0000000000000000e+00
-5.0000000000000000e+00 5.0000000000000000e+00
ITEM: ATOMS id type xs ys zs
1 1 0.225863 0.594066 0.290552
2 1 0.788776 0.79138 0.109699
3 1 0.793021 0.110957 0.528147
4 1 0.690784 0.878989 0.875489
5 1 0.386712 0.263675 0.777734
6 1 0.360802 0.159691 0.745043
7 1 0.759903 0.792872 0.854832
8 1 0.942725 0.269951 0.413649
ITEM: TIMESTEP
30
ITEM: NUMBER OF ATOMS
8
ITEM: BOX BOUNDS ff ff ff
-5.0000000000000000e+00 5.0000000000000000e+00
-5.0000000000000000e+00 5.0000000000000000e+00
-5.0000000000000000e+00 5.0000000000000000e+00
ITEM: ATOMS id type xs ys zs
1 1 0.225863 0.594066 0.290552
2 1 0.788776 0.79138 0.109699
3 1 0.793065 0.111006 0.528113
4 1 0.690841 0.878918 0.875472
5 1 0.386762 0.263871 0.777796
6 1 0.360754 0.159496 0.744981
7 1 0.759846 0.792943 0.854849
8 1 0.942679 0.269903 0.413684
ITEM: TIMESTEP
31
ITEM: NUMBER OF ATOMS
8
ITEM: BOX BOUNDS ff ff ff
-5.0000000000000000e+00 5.0000000000000000e+00
-5.0000000000000000e+00 5.0000000000000000e+00
-5.0000000000000000e+00 5.0000000000000000e+00
ITEM: ATOMS id type xs ys zs
1 1 0.225863 0.594065 0.290552
2 1 0.788775 0.79138 0.109699
3 1 0.79311 0.111055 0.528078
4 1 0.690784 0.878989 0.875489
5 1 0.386714 0.263675 0.777734
6 1 0.360803 0.159691 0.745042
7 1 0.759902 0.792872 0.854832
8 1 0.942633 0.269854 0.413719
ITEM: TIMESTEP
32
ITEM: NUMBER OF ATOMS
8
ITEM: BOX BOUNDS ff ff ff
-5.0000000000000000e+00 5.0000000000000000e+00
-5.0000000000000000e+00 5.0000000000000000e+00
-5.0000000000000000e+00 5.0000000000000000e+00
ITEM: ATOMS id type xs ys zs
1 1 0.225863 0.594065 0.290552
2 1 0.788775 0.79138 0.109699
3 1 0.793155 0.111104 0.528044
4 1 0.690841 0.878918 0.875472
5 1 0.386763 0.263871 0.777795
6 1 0.360755 0.159496 0.74498
7 1 0.759845 0.792943 0.854849
8 1 0.942587 0.269806 0.413754
ITEM: TIMESTEP
33
ITEM: NUMBER OF ATOMS
8
ITEM: BOX BOUNDS ff ff ff
-5.0000000000000000e+00 5.0000000000000000e+00
-5.0000000000000000e+00 5.0000000000000000e+00
-5.0000000000000000e+00 5.0000000000000000e+00
ITEM: ATOMS id type xs ys zs
1 1 0.225863 0.594065 0.290553
2 1 0.788775 0.79138 0.1097
3 1 0.7932 0.111153 0.528009
4 1 0.690784 0.878989 0.875489
5 1 0.386715 0.263675 0.777733
6 1 0.360805 0.159691 0.745041
7 1 0.759902 0.792871 0.854832
8 1 0.94254 0.269756 0.41379
ITEM: TIMESTEP
34
ITEM: NUMBER OF ATOMS
8
ITEM: BOX BOUNDS ff ff ff
-5.0000000000000000e+00 5.0000000000000000e+00
-5.0000000000000000e+00 5.0000000000000000e+00
-5.0000000000000000e+00 5.0000000000000000e+00
ITEM: ATOMS id type xs ys zs
1 1 0.225864 0.594065 0.290553
2 1 0.788775 0.791379 0.1097
3 1 0.793245 0.111203 0.527974
4 1 0.690841 0.878918 0.875472
5 1 0.386764 0.263871 0.777794
6 1 0.360757 0.159496 0.744979
7 1 0.759845 0.792942 0.854849
8 1 0.942494 0.269708 0.413825
ITEM: TIMESTEP
35
ITEM: NUMBER OF ATOMS
8
ITEM: BOX BOUNDS ff ff ff
-5.0000000000000000e+00 5.0000000000000000e+00
-5.0000000000000000e+00 5.0000000000000000e+00
-5.0000000000000000e+00 5.0000000000000000e+00
ITEM: ATOMS id type xs ys zs
1 1 0.225864 0.594065 0.290553
2 1 0.788775 0.791379 0.1097
3 1 0.793291 0.111253 0.527939
4 1 0.690784 0.878989 0.875489
5 1 0.386716 0.263675 0.777732
6 1 0.360806 0.159692 0.74504
7 1 0.759902 0.792871 0.854832
8 1 0.942447 0.269658 0.413861
ITEM: TIMESTEP
36
ITEM: NUMBER OF ATOMS
8
ITEM: BOX BOUNDS ff ff ff
-5.0000000000000000e+00 5.0000000000000000e+00
-5.0000000000000000e+00 5.0000000000000000e+00
-5.0000000000000000e+00 5.0000000000000000e+00
ITEM: ATOMS id type xs ys zs
1 1 0.225864 0.594065 0.290553
2 1 0.788775 0.791379 0.1097
3 1 0.793337 0.111302 0.527903
4 1 0.690841 0.878917 0.875472
5 1 0.386765 0.263871 0.777793
6 1 0.360758 0.159496 0.744978
7 1 0.759845 0.792942 0.854849
8 1 0.9424 0.269609 0.413897
ITEM: TIMESTEP
37
ITEM: NUMBER OF ATOMS
8
ITEM: BOX BOUNDS ff ff ff
-5.0000000000000000e+00 5.0000000000000000e+00
-5.0000000000000000e+00 5.0000000000000000e+00
-5.0000000000000000e+00 5.0000000000000000e+00
ITEM: ATOMS id type xs ys zs
1 1 0.225864 0.594065 0.290553
2 1 0.788775 0.791379 0.1097
3 1 0.793383 0.111353 0.527868
4 1 0.690784 0.878989 0.875489
5 1 0.386717 0.263675 0.777731
6 1 0.360807 0.159692 0.74504
7 1 0.759902 0.792871 0.854831
8 1 0.942353 0.269559 0.413933
ITEM: TIMESTEP
38
ITEM: NUMBER OF ATOMS
8
ITEM: BOX BOUNDS ff ff ff
-5.0000000000000000e+00 5.0000000000000000e+00
-5.0000000000000000e+00 5.0000000000000000e+00
-5.0000000000000000e+00 5.0000000000000000e+00
ITEM: ATOMS id type xs ys zs
1 1 0.225865 0.594065 0.290554
2 1 0.788775 0.791379 0.1097
3 1 0.793429 0.111403 0.527833
4 1 0.690841 0.878917 0.875472
5 1 0.386766 0.263871 0.777792
6 1 0.360759 0.159496 0.744978
7 1 0.759845 0.792942 0.854849
8 1 0.942305 0.269509 0.413969
ITEM: TIMESTEP
39
ITEM: NUMBER OF ATOMS
8
ITEM: BOX BOUNDS ff ff ff
-5.0000000000000000e+00 5.0000000000000000e+00
-5.0000000000000000e+00 5.0000000000000000e+00
-5.0000000000000000e+00 5.0000000000000000e+00
ITEM: ATOMS id type xs ys zs
1 1 0.225865 0.594065 0.290554
2 1 0.788775 0.791379 0.109701
3 1 0.793476 0.111454 0.527797
4 1 0.690783 0.878988 0.875489
5 1 0.386718 0.263675 0.77773
6 1 0.360809 0.159692 0.745039
7 1 0.759902 0.79287 0.854831
8 1 0.942258 0.269458 0.414006
ITEM: TIMESTEP
40
ITEM: NUMBER OF ATOMS
8
ITEM: BOX BOUNDS ff ff ff
-5.0000000000000000e+00 5.0000000000000000e+00
-5.0000000000000000e+00 5.0000000000000000e+00
-5.0000000000000000e+00 5.0000000000000000e+00
ITEM: ATOMS id type xs ys zs
1 1 0.225865 0.594064 0.290554
2 1 0.788775 0.791378 0.109701
3 1 0.793522 0.111505 0.527761
4 1 0.690841 0.878917 0.875471
5 1 0.386767 0.263871 0.777792
6 1 0.36076 0.159496 0.744977
7 1 0.759845 0.792942 0.854848
8 1 0.94221 0.269408 0.414042
ITEM: TIMESTEP
41
ITEM: NUMBER OF ATOMS
8
ITEM: BOX BOUNDS ff ff ff
-5.0000000000000000e+00 5.0000000000000000e+00
-5.0000000000000000e+00 5.0000000000000000e+00
-5.0000000000000000e+00 5.0000000000000000e+00
ITEM: ATOMS id type xs ys zs
1 1 0.225865 0.594064 0.290554
2 1 0.788775 0.791378 0.109701
3 1 0.793569 0.111556 0.527725
4 1 0.690783 0.878988 0.875489
5 1 0.386719 0.263675 0.77773
6 1 0.36081 0.159692 0.745038
7 1 0.759902 0.79287 0.854831
8 1 0.942162 0.269357 0.414079
ITEM: TIMESTEP
42
ITEM: NUMBER OF ATOMS
8
ITEM: BOX BOUNDS ff ff ff
-5.0000000000000000e+00 5.0000000000000000e+00
-5.0000000000000000e+00 5.0000000000000000e+00
-5.0000000000000000e+00 5.0000000000000000e+00
ITEM: ATOMS id type xs ys zs
1 1 0.225865 0.594064 0.290554
2 1 0.788775 0.791378 0.109701
3 1 0.793616 0.111607 0.527689
4 1 0.690841 0.878916 0.875471
5 1 0.386768 0.263872 0.777791
6 1 0.360762 0.159496 0.744976
7 1 0.759844 0.792941 0.854848
8 1 0.942114 0.269307 0.414115
ITEM: TIMESTEP
43
ITEM: NUMBER OF ATOMS
8
ITEM: BOX BOUNDS ff ff ff
-5.0000000000000000e+00 5.0000000000000000e+00
-5.0000000000000000e+00 5.0000000000000000e+00
-5.0000000000000000e+00 5.0000000000000000e+00
ITEM: ATOMS id type xs ys zs
1 1 0.225866 0.594064 0.290554
2 1 0.788774 0.791378 0.109701
3 1 0.793663 0.111659 0.527652
4 1 0.690783 0.878988 0.875488
5 1 0.38672 0.263675 0.777729
6 1 0.360811 0.159692 0.745037
7 1 0.759902 0.79287 0.854831
8 1 0.942065 0.269255 0.414153
ITEM: TIMESTEP
44
ITEM: NUMBER OF ATOMS
8
ITEM: BOX BOUNDS ff ff ff
-5.0000000000000000e+00 5.0000000000000000e+00
-5.0000000000000000e+00 5.0000000000000000e+00
-5.0000000000000000e+00 5.0000000000000000e+00
ITEM: ATOMS id type xs ys zs
1 1 0.225866 0.594064 0.290555
2 1 0.788774 0.791378 0.109701
3 1 0.793711 0.11171 0.527616
4 1 0.690841 0.878916 0.875471
5 1 0.386769 0.263872 0.77779
6 1 0.360763 0.159495 0.744975
7 1 0.759844 0.792941 0.854848
8 1 0.942017 0.269204 0.41419
ITEM: TIMESTEP
45
ITEM: NUMBER OF ATOMS
8
ITEM: BOX BOUNDS ff ff ff
-5.0000000000000000e+00 5.0000000000000000e+00
-5.0000000000000000e+00 5.0000000000000000e+00
-5.0000000000000000e+00 5.0000000000000000e+00
ITEM: ATOMS id type xs ys zs
1 1 0.225866 0.594064 0.290555
2 1 0.788774 0.791378 0.109702
3 1 0.793758 0.111763 0.527579
4 1 0.690783 0.878988 0.875488
5 1 0.386721 0.263675 0.777728
6 1 0.360812 0.159692 0.745037
7 1 0.759902 0.792869 0.854831
8 1 0.941967 0.269152 0.414227
ITEM: TIMESTEP
46
ITEM: NUMBER OF ATOMS
8
ITEM: BOX BOUNDS ff ff ff
-5.0000000000000000e+00 5.0000000000000000e+00
-5.0000000000000000e+00 5.0000000000000000e+00
-5.0000000000000000e+00 5.0000000000000000e+00
ITEM: ATOMS id type xs ys zs
1 1 0.225866 0.594064 0.290555
2 1 0.788774 0.791378 0.109702
3 1 0.793806 0.111815 0.527542
4 1 0.690841 0.878916 0.875471
5 1 0.38677 0.263872 0.777789
6 1 0.360764 0.159495 0.744974
7 1 0.759844 0.792941 0.854848
8 1 0.941919 0.269101 0.414264
ITEM: TIMESTEP
47
ITEM: NUMBER OF ATOMS
8
ITEM: BOX BOUNDS ff ff ff
-5.0000000000000000e+00 5.0000000000000000e+00
-5.0000000000000000e+00 5.0000000000000000e+00
-5.0000000000000000e+00 5.0000000000000000e+00
ITEM: ATOMS id type xs ys zs
1 1 0.225866 0.594064 0.290555
2 1 0.788774 0.791377 0.109702
3 1 0.793855 0.111868 0.527505
4 1 0.690783 0.878988 0.875488
5 1 0.386722 0.263675 0.777727
6 1 0.360814 0.159693 0.745036
7 1 0.759902 0.792869 0.85483
8 1 0.941869 0.269048 0.414302
ITEM: TIMESTEP
48
ITEM: NUMBER OF ATOMS
8
ITEM: BOX BOUNDS ff ff ff
-5.0000000000000000e+00 5.0000000000000000e+00
-5.0000000000000000e+00 5.0000000000000000e+00
-5.0000000000000000e+00 5.0000000000000000e+00
ITEM: ATOMS id type xs ys zs
1 1 0.225867 0.594064 0.290555
2 1 0.788774 0.791377 0.109702
3 1 0.793903 0.11192 0.527468
4 1 0.690841 0.878915 0.875471
5 1 0.386772 0.263872 0.777789
6 1 0.360765 0.159495 0.744973
7 1 0.759844 0.792941 0.854848
8 1 0.94182 0.268996 0.41434
ITEM: TIMESTEP
49
ITEM: NUMBER OF ATOMS
8
ITEM: BOX BOUNDS ff ff ff
-5.0000000000000000e+00 5.0000000000000000e+00
-5.0000000000000000e+00 5.0000000000000000e+00
-5.0000000000000000e+00 5.0000000000000000e+00
ITEM: ATOMS id type xs ys zs
1 1 0.225867 0.594064 0.290556
2 1 0.788774 0.791377 0.109702
3 1 0.793952 0.111973 0.52743
4 1 0.690783 0.878988 0.875488
5 1 0.386723 0.263675 0.777726
6 1 0.360815 0.159693 0.745035
7 1 0.759902 0.792868 0.85483
8 1 0.94177 0.268944 0.414378
ITEM: TIMESTEP
50
ITEM: NUMBER OF ATOMS
8
ITEM: BOX BOUNDS ff ff ff
-5.0000000000000000e+00 5.0000000000000000e+00
-5.0000000000000000e+00 5.0000000000000000e+00
-5.0000000000000000e+00 5.0000000000000000e+00
ITEM: ATOMS id type xs ys zs
1 1 0.225867 0.594063 0.290556
2 1 0.788774 0.791377 0.109702
3 1 0.794 0.112026 0.527393
4 1 0.690841 0.878915 0.875471
5 1 0.386773 0.263873 0.777788
6 1 0.360767 0.159495 0.744973
7 1 0.759844 0.792941 0.854847
8 1 0.94172 0.268891 0.414416
ITEM: TIMESTEP
51
ITEM: NUMBER OF ATOMS
8
ITEM: BOX BOUNDS ff ff ff
-5.0000000000000000e+00 5.0000000000000000e+00
-5.0000000000000000e+00 5.0000000000000000e+00
-5.0000000000000000e+00 5.0000000000000000e+00
ITEM: ATOMS id type xs ys zs
1 1 0.225867 0.594063 0.290556
2 1 0.788774 0.791377 0.109703
3 1 0.794049 0.11208 0.527355
4 1 0.690783 0.878987 0.875488
5 1 0.386724 0.263675 0.777726
6 1 0.360816 0.159693 0.745034
7 1 0.759902 0.792868 0.85483
8 1 0.941669 0.268838 0.414455
ITEM: TIMESTEP
52
ITEM: NUMBER OF ATOMS
8
ITEM: BOX BOUNDS ff ff ff
-5.0000000000000000e+00 5.0000000000000000e+00
-5.0000000000000000e+00 5.0000000000000000e+00
-5.0000000000000000e+00 5.0000000000000000e+00
ITEM: ATOMS id type xs ys zs
1 1 0.225868 0.594063 0.290556
2 1 0.788774 0.791377 0.109703
3 1 0.794099 0.112133 0.527317
4 1 0.690841 0.878915 0.875471
5 1 0.386774 0.263873 0.777787
6 1 0.360768 0.159495 0.744972
7 1 0.759843 0.79294 0.854847
8 1 0.941619 0.268785 0.414493
ITEM: TIMESTEP
53
ITEM: NUMBER OF ATOMS
8
ITEM: BOX BOUNDS ff ff ff
-5.0000000000000000e+00 5.0000000000000000e+00
-5.0000000000000000e+00 5.0000000000000000e+00
-5.0000000000000000e+00 5.0000000000000000e+00
ITEM: ATOMS id type xs ys zs
1 1 0.225868 0.594063 0.290556
2 1 0.788774 0.791377 0.109703
3 1 0.794148 0.112188 0.527279
4 1 0.690783 0.878987 0.875488
5 1 0.386725 0.263675 0.777725
6 1 0.360818 0.159693 0.745034
7 1 0.759902 0.792868 0.85483
8 1 0.941568 0.268731 0.414532
ITEM: TIMESTEP
54
ITEM: NUMBER OF ATOMS
8
ITEM: BOX BOUNDS ff ff ff
-5.0000000000000000e+00 5.0000000000000000e+00
-5.0000000000000000e+00 5.0000000000000000e+00
-5.0000000000000000e+00 5.0000000000000000e+00
ITEM: ATOMS id type xs ys zs
1 1 0.225868 0.594063 0.290556
2 1 0.788773 0.791376 0.109703
3 1 0.794198 0.112242 0.527241
4 1 0.690841 0.878915 0.87547
5 1 0.386775 0.263873 0.777787
6 1 0.360769 0.159495 0.744971
7 1 0.759843 0.79294 0.854847
8 1 0.941517 0.268677 0.414571
ITEM: TIMESTEP
55
ITEM: NUMBER OF ATOMS
8
ITEM: BOX BOUNDS ff ff ff
-5.0000000000000000e+00 5.0000000000000000e+00
-5.0000000000000000e+00 5.0000000000000000e+00
-5.0000000000000000e+00 5.0000000000000000e+00
ITEM: ATOMS id type xs ys zs
1 1 0.225868 0.594063 0.290557
2 1 0.788773 0.791376 0.109703
3 1 0.794248 0.112296 0.527202
4 1 0.690783 0.878987 0.875488
5 1 0.386726 0.263675 0.777724
6 1 0.360819 0.159693 0.745033
7 1 0.759901 0.792867 0.85483
8 1 0.941466 0.268623 0.41461
ITEM: TIMESTEP
56
ITEM: NUMBER OF ATOMS
8
ITEM: BOX BOUNDS ff ff ff
-5.0000000000000000e+00 5.0000000000000000e+00
-5.0000000000000000e+00 5.0000000000000000e+00
-5.0000000000000000e+00 5.0000000000000000e+00
ITEM: ATOMS id type xs ys zs
1 1 0.225868 0.594063 0.290557
2 1 0.788773 0.791376 0.109703
3 1 0.794298 0.112351 0.527164
4 1 0.690841 0.878914 0.87547
5 1 0.386776 0.263873 0.777786
6 1 0.36077 0.159495 0.74497
7 1 0.759843 0.79294 0.854847
8 1 0.941415 0.268569 0.414649
ITEM: TIMESTEP
57
ITEM: NUMBER OF ATOMS
8
ITEM: BOX BOUNDS ff ff ff
-5.0000000000000000e+00 5.0000000000000000e+00
-5.0000000000000000e+00 5.0000000000000000e+00
-5.0000000000000000e+00 5.0000000000000000e+00
ITEM: ATOMS id type xs ys zs
1 1 0.225869 0.594063 0.290557
2 1 0.788773 0.791376 0.109704
3 1 0.794349 0.112406 0.527125
4 1 0.690783 0.878987 0.875488
5 1 0.386727 0.263675 0.777723
6 1 0.36082 0.159693 0.745032
7 1 0.759901 0.792867 0.854829
8 1 0.941363 0.268514 0.414689
ITEM: TIMESTEP
58
ITEM: NUMBER OF ATOMS
8
ITEM: BOX BOUNDS ff ff ff
-5.0000000000000000e+00 5.0000000000000000e+00
-5.0000000000000000e+00 5.0000000000000000e+00
-5.0000000000000000e+00 5.0000000000000000e+00
ITEM: ATOMS id type xs ys zs
1 1 0.225869 0.594063 0.290557
2 1 0.788773 0.791376 0.109704
3 1 0.794399 0.112461 0.527086
4 1 0.690841 0.878914 0.87547
5 1 0.386777 0.263874 0.777785
6 1 0.360771 0.159495 0.744969
7 1 0.759843 0.79294 0.854847
8 1 0.941311 0.268459 0.414728
ITEM: TIMESTEP
59
ITEM: NUMBER OF ATOMS
8
ITEM: BOX BOUNDS ff ff ff
-5.0000000000000000e+00 5.0000000000000000e+00
-5.0000000000000000e+00 5.0000000000000000e+00
-5.0000000000000000e+00 5.0000000000000000e+00
ITEM: ATOMS id type xs ys zs
1 1 0.225869 0.594062 0.290557
2 1 0.788773 0.791376 0.109704
3 1 0.794451 0.112517 0.527046
4 1 0.690782 0.878987 0.875487
5 1 0.386728 0.263675 0.777722
6 1 0.360821 0.159694 0.745031
7 1 0.759901 0.792867 0.854829
8 1 0.941258 0.268404 0.414768
ITEM: TIMESTEP
60
ITEM: NUMBER OF ATOMS
8
ITEM: BOX BOUNDS ff ff ff
-5.0000000000000000e+00 5.0000000000000000e+00
-5.0000000000000000e+00 5.0000000000000000e+00
-5.0000000000000000e+00 5.0000000000000000e+00
ITEM: ATOMS id type xs ys zs
1 1 0.225869 0.594062 0.290557
2 1 0.788773 0.791375 0.109704
3 1 0.794502 0.112573 0.527007
4 1 0.690841 0.878914 0.87547
5 1 0.386778 0.263874 0.777784
6 1 0.360773 0.159495 0.744969
7 1 0.759843 0.79294 0.854847
8 1 0.941206 0.268349 0.414808
ITEM: TIMESTEP
61
ITEM: NUMBER OF ATOMS
8
ITEM: BOX BOUNDS ff ff ff
-5.0000000000000000e+00 5.0000000000000000e+00
-5.0000000000000000e+00 5.0000000000000000e+00
-5.0000000000000000e+00 5.0000000000000000e+00
ITEM: ATOMS id type xs ys zs
1 1 0.22587 0.594062 0.290558
2 1 0.788773 0.791375 0.109704
3 1 0.794553 0.112629 0.526967
4 1 0.690782 0.878987 0.875487
5 1 0.386729 0.263675 0.777721
6 1 0.360823 0.159694 0.745031
7 1 0.759901 0.792866 0.854829
8 1 0.941153 0.268293 0.414848
ITEM: TIMESTEP
62