ITEM: TIMESTEP
0
ITEM: NUMBER OF ATOMS
19
ITEM: BOX BOUNDS ff ff ff
-5.0000000000000000e+00 5.0000000000000000e+00
-5.0000000000000000e+00 5.0000000000000000e+00
-5.0000000000000000e+00 5.0000000000000000e+00
ITEM: ATOMS id type xs ys zs
1 1 0.447115 0.665829 0.589629
2 1 0.900189 0.47154 0.17073
3 1 0.462874 0.524565 0.369924
4 1 0.317061 0.852072 0.776475
5 1 0.213119 0.899357 0.499827
6 1 0.595959 0.285638 0.722554
7 1 0.970024 0.188037 0.33276
8 1 0.695274 0.476456 0.794595
9 1 0.756072 0.29438 0.640105
10 1 0.24512 0.724526 0.105893
11 1 0.740811 0.816268 0.0225718
12 1 0.363754 0.61961 0.780547
13 1 0.647511 0.710367 0.129921
14 1 0.582858 0.098182 0.145583
15 1 0.810728 0.902646 0.769811
16 1 0.21812 0.938691 0.58585
17 1 0.38874 0.560029 0.400404
18 1 0.581957 0.959699 0.65428
19 1 0.480849 0.621667 0.364623
ITEM: TIMESTEP
1
ITEM: NUMBER OF ATOMS
19
ITEM: BOX BOUNDS ff ff ff
-5.0000000000000000e+00 5.0000000000000000e+00
-5.0000000000000000e+00 5.0000000000000000e+00
-5.0000000000000000e+00 5.0000000000000000e+00
ITEM: ATOMS id type xs ys zs
1 1 0.447113 0.665827 0.589628
2 1 0.900189 0.47154 0.17073
3 1 0.467757 0.521318 0.367899
4 1 0.317061 0.852071 0.776473
5 1 0.213025 0.898612 0.498198
6 1 0.595969 0.285641 0.72255
7 1 0.970024 0.188037 0.33276
8 1 0.695274 0.476453 0.794593
9 1 0.756062 0.29438 0.640111
10 1 0.24512 0.724526 0.105893
11 1 0.740805 0.816261 0.0225789
12 1 0.363755 0.619612 0.780543
13 1 0.647517 0.710373 0.129914
14 1 0.582858 0.0981821 0.145583
15 1 0.810727 0.902646 0.769811
16 1 0.218215 0.939436 0.587482
17 1 0.38374 0.562465 0.402462
18 1 0.581958 0.959698 0.65428
19 1 0.480966 0.622481 0.364593
ITEM: TIMESTEP
2
ITEM: NUMBER OF ATOMS
19
ITEM: BOX BOUNDS ff ff ff
-5.0000000000000000e+00 5.0000000000000000e+00
-5.0000000000000000e+00 5.0000000000000000e+00
-5.0000000000000000e+00 5.0000000000000000e+00
ITEM: ATOMS id type xs ys zs
1 1 0.447097 0.665808 0.589617
2 1 0.900188 0.47154 0.170731
3 1 0.472627 0.514668 0.365817
4 1 0.317059 0.852063 0.776453
5 1 0.212588 0.89515 0.490634
6 1 0.59606 0.285662 0.722514
7 1 0.970023 0.188038 0.33276
8 1 0.695267 0.47643 0.79458
9 1 0.755977 0.294384 0.640159
10 1 0.245121 0.724525 0.105895
11 1 0.740751 0.816199 0.0226418
12 1 0.363765 0.619632 0.780515
13 1 0.647569 0.710433 0.129855
14 1 0.582858 0.0981824 0.145583
15 1 0.810721 0.902647 0.769808
16 1 0.218664 0.942888 0.595063
17 1 0.378813 0.565401 0.404521
18 1 0.58196 0.959694 0.654284
19 1 0.481029 0.626214 0.364655
ITEM: TIMESTEP
3
ITEM: NUMBER OF ATOMS
19
ITEM: BOX BOUNDS ff ff ff
-5.0000000000000000e+00 5.0000000000000000e+00
-5.0000000000000000e+00 5.0000000000000000e+00
-5.0000000000000000e+00 5.0000000000000000e+00
ITEM: ATOMS id type xs ys zs
1 1 0.446901 0.665591 0.589482
2 1 0.900178 0.471537 0.170738
3 1 0.473354 0.511837 0.365518
4 1 0.317021 0.851982 0.776208
5 1 0.212598 0.894972 0.490323
6 1 0.597109 0.285911 0.722089
7 1 0.970014 0.188053 0.332756
8 1 0.695186 0.476158 0.794422
9 1 0.75499 0.294427 0.640723
10 1 0.245137 0.724518 0.105914
11 1 0.740118 0.815477 0.0233727
12 1 0.363878 0.619868 0.780191
13 1 0.648179 0.711127 0.129165
14 1 0.582861 0.0981858 0.145586
15 1 0.810646 0.902661 0.769771
16 1 0.218802 0.942935 0.595588
17 1 0.383561 0.569342 0.402943
18 1 0.58199 0.959646 0.654322
19 1 0.475614 0.62533 0.366973
ITEM: TIMESTEP
4
ITEM: NUMBER OF ATOMS
19
ITEM: BOX BOUNDS ff ff ff
-5.0000000000000000e+00 5.0000000000000000e+00
-5.0000000000000000e+00 5.0000000000000000e+00
-5.0000000000000000e+00 5.0000000000000000e+00
ITEM: ATOMS id type xs ys zs
1 1 0.446808 0.665486 0.589404
2 1 0.900173 0.471536 0.170741
3 1 0.472932 0.513026 0.365734
4 1 0.317002 0.851945 0.776092
5 1 0.21272 0.895798 0.492174
6 1 0.59764 0.286032 0.721871
7 1 0.97001 0.188059 0.332754
8 1 0.695147 0.476028 0.794346
9 1 0.754489 0.294447 0.641009
10 1 0.245144 0.724515 0.105923
11 1 0.739794 0.815108 0.0237461
12 1 0.363931 0.619978 0.780038
13 1 0.648493 0.711483 0.128809
14 1 0.582862 0.0981874 0.145587
15 1 0.810611 0.902668 0.769754
16 1 0.21875 0.942046 0.593839
17 1 0.384789 0.569581 0.402579
18 1 0.582004 0.959624 0.65434
19 1 0.474837 0.62401 0.367345
ITEM: TIMESTEP
5
ITEM: NUMBER OF ATOMS
19
ITEM: BOX BOUNDS ff ff ff
-5.0000000000000000e+00 5.0000000000000000e+00
-5.0000000000000000e+00 5.0000000000000000e+00
-5.0000000000000000e+00 5.0000000000000000e+00
ITEM: ATOMS id type xs ys zs
1 1 0.446772 0.665446 0.589374
2 1 0.900172 0.471535 0.170742
3 1 0.472977 0.513021 0.365724
4 1 0.316995 0.85193 0.776047
5 1 0.212746 0.895955 0.492533
6 1 0.597848 0.286078 0.721785
7 1 0.970008 0.188062 0.332753
8 1 0.695132 0.475977 0.794317
9 1 0.754293 0.294455 0.64112
10 1 0.245147 0.724514 0.105927
11 1 0.739668 0.814964 0.0238924
12 1 0.363951 0.620021 0.779979
13 1 0.648616 0.711623 0.128669
14 1 0.582862 0.098188 0.145587
15 1 0.810598 0.90267 0.769747
16 1 0.218751 0.941865 0.593518
17 1 0.384771 0.569643 0.402637
18 1 0.58201 0.959615 0.654347
19 1 0.47482 0.623996 0.367384
ITEM: TIMESTEP
6
ITEM: NUMBER OF ATOMS
19
ITEM: BOX BOUNDS ff ff ff
-5.0000000000000000e+00 5.0000000000000000e+00
-5.0000000000000000e+00 5.0000000000000000e+00
-5.0000000000000000e+00 5.0000000000000000e+00
ITEM: ATOMS id type xs ys zs
1 1 0.446725 0.665393 0.589334
2 1 0.900169 0.471535 0.170744
3 1 0.473295 0.512382 0.365593
4 1 0.316986 0.85191 0.77599
5 1 0.212736 0.89582 0.492255
6 1 0.598125 0.28614 0.72167
7 1 0.970006 0.188065 0.332752
8 1 0.695113 0.475911 0.794278
9 1 0.75403 0.294464 0.64127
10 1 0.245151 0.724512 0.105932
11 1 0.739497 0.81477 0.0240891
12 1 0.363978 0.620077 0.779901
13 1 0.648782 0.711811 0.128481
14 1 0.582863 0.0981889 0.145588
15 1 0.81058 0.902673 0.769738
16 1 0.218795 0.94197 0.593847
17 1 0.384085 0.569654 0.402979
18 1 0.582017 0.959604 0.654356
19 1 0.475203 0.624678 0.367287
ITEM: TIMESTEP
7
ITEM: NUMBER OF ATOMS
19
ITEM: BOX BOUNDS ff ff ff
-5.0000000000000000e+00 5.0000000000000000e+00
-5.0000000000000000e+00 5.0000000000000000e+00
-5.0000000000000000e+00 5.0000000000000000e+00
ITEM: ATOMS id type xs ys zs
1 1 0.445112 0.663572 0.587963
2 1 0.900092 0.471514 0.170798
3 1 0.471841 0.514372 0.366603
4 1 0.316684 0.851237 0.774019
5 1 0.212591 0.892708 0.486055
6 1 0.607927 0.288276 0.717592
7 1 0.969935 0.188181 0.332722
8 1 0.694445 0.473616 0.792945
9 1 0.744748 0.29479 0.646533
10 1 0.245278 0.724458 0.10609
11 1 0.733464 0.807892 0.0310543
12 1 0.364892 0.621985 0.777246
13 1 0.654657 0.718477 0.121805
14 1 0.582881 0.0982166 0.145608
15 1 0.80998 0.902785 0.769442
16 1 0.220122 0.944036 0.601771
17 1 0.386159 0.569809 0.404357
18 1 0.582259 0.959222 0.654664
19 1 0.475068 0.624413 0.368817
ITEM: TIMESTEP
8
ITEM: NUMBER OF ATOMS
19
ITEM: BOX BOUNDS ff ff ff
-5.0000000000000000e+00 5.0000000000000000e+00
-5.0000000000000000e+00 5.0000000000000000e+00
-5.0000000000000000e+00 5.0000000000000000e+00
ITEM: ATOMS id type xs ys zs
1 1 0.443508 0.661758 0.586596
2 1 0.900014 0.471493 0.170851
3 1 0.471569 0.514749 0.367065
4 1 0.316381 0.850572 0.772054
5 1 0.212532 0.890203 0.481214
6 1 0.617927 0.290417 0.71341
7 1 0.969865 0.188297 0.332691
8 1 0.693779 0.471322 0.791613
9 1 0.735267 0.295107 0.651901
10 1 0.245404 0.724404 0.106247
11 1 0.727279 0.800842 0.0381942
12 1 0.365801 0.623883 0.774602
13 1 0.660685 0.725317 0.114951
14 1 0.582899 0.0982441 0.145627
15 1 0.809383 0.902895 0.769147
16 1 0.221361 0.945496 0.608332
17 1 0.386414 0.570365 0.406503
18 1 0.5825 0.958843 0.654971
19 1 0.475567 0.62535 0.370113
ITEM: TIMESTEP
9
ITEM: NUMBER OF ATOMS
19
ITEM: BOX BOUNDS ff ff ff
-5.0000000000000000e+00 5.0000000000000000e+00
-5.0000000000000000e+00 5.0000000000000000e+00
-5.0000000000000000e+00 5.0000000000000000e+00
ITEM: ATOMS id type xs ys zs
1 1 0.443059 0.661241 0.586193
2 1 0.899994 0.471488 0.170865
3 1 0.474602 0.511124 0.365686
4 1 0.31627 0.850418 0.771477
5 1 0.21272 0.890837 0.482898
6 1 0.623058 0.291145 0.711042
7 1 0.969846 0.188327 0.332682
8 1 0.693587 0.470605 0.791196
9 1 0.730289 0.295141 0.654648
10 1 0.245437 0.72439 0.106289
11 1 0.723998 0.797112 0.0419803
12 1 0.366054 0.624408 0.773852
13 1 0.663929 0.728994 0.111236
14 1 0.582904 0.0982514 0.145633
15 1 0.809221 0.902926 0.769067
16 1 0.221524 0.944543 0.607159
17 1 0.382198 0.571909 0.409052
18 1 0.582567 0.958741 0.655055
19 1 0.47688 0.627961 0.370074
ITEM: TIMESTEP
10
ITEM: NUMBER OF ATOMS
19
ITEM: BOX BOUNDS ff ff ff
-5.0000000000000000e+00 5.0000000000000000e+00
-5.0000000000000000e+00 5.0000000000000000e+00
-5.0000000000000000e+00 5.0000000000000000e+00
ITEM: ATOMS id type xs ys zs
1 1 0.442862 0.661014 0.586012
2 1 0.899985 0.471486 0.170871
3 1 0.474861 0.511278 0.36563
4 1 0.316218 0.850357 0.77122
5 1 0.212852 0.89143 0.48436
6 1 0.625862 0.291493 0.709717
7 1 0.969838 0.18834 0.332678
8 1 0.693503 0.470271 0.791001
9 1 0.727551 0.295146 0.656151
10 1 0.245451 0.724384 0.106307
11 1 0.722622 0.795547 0.0435685
12 1 0.366163 0.624634 0.773523
13 1 0.66529 0.730536 0.109677
14 1 0.582906 0.0982545 0.145635
15 1 0.809151 0.902939 0.769032
16 1 0.221549 0.943805 0.605924
17 1 0.382253 0.572352 0.409332
18 1 0.582596 0.958698 0.65509
19 1 0.476622 0.627593 0.370353
ITEM: TIMESTEP
11
ITEM: NUMBER OF ATOMS
19
ITEM: BOX BOUNDS ff ff ff
-5.0000000000000000e+00 5.0000000000000000e+00
-5.0000000000000000e+00 5.0000000000000000e+00
-5.0000000000000000e+00 5.0000000000000000e+00
ITEM: ATOMS id type xs ys zs
1 1 0.442681 0.660806 0.585838
2 1 0.899978 0.471484 0.170876
3 1 0.473514 0.513843 0.366387
4 1 0.316164 0.850311 0.770984
5 1 0.213054 0.892482 0.486874
6 1 0.628331 0.29182 0.708565
7 1 0.969832 0.188352 0.332674
8 1 0.693425 0.469931 0.790802
9 1 0.725145 0.295175 0.657488
10 1 0.245463 0.724379 0.106322
11 1 0.723113 0.7961 0.0430046
12 1 0.36626 0.624835 0.773224
13 1 0.664789 0.729965 0.110263
14 1 0.582908 0.0982572 0.145637
15 1 0.80909 0.90295 0.769002
16 1 0.221491 0.942617 0.603622
17 1 0.384963 0.572319 0.408411
18 1 0.582622 0.958661 0.655122
19 1 0.475313 0.625272 0.370987
ITEM: TIMESTEP
12
ITEM: NUMBER OF ATOMS
19
ITEM: BOX BOUNDS ff ff ff
-5.0000000000000000e+00 5.0000000000000000e+00
-5.0000000000000000e+00 5.0000000000000000e+00
-5.0000000000000000e+00 5.0000000000000000e+00
ITEM: ATOMS id type xs ys zs
1 1 0.442568 0.660673 0.585722
2 1 0.899973 0.471484 0.170879
3 1 0.47261 0.514477 0.366843
4 1 0.316129 0.850283 0.770836
5 1 0.21324 0.893488 0.489254
6 1 0.62745 0.29195 0.709131
7 1 0.969828 0.188358 0.332672
8 1 0.693375 0.469694 0.790661
9 1 0.726067 0.295292 0.657055
10 1 0.24547 0.724376 0.106331
11 1 0.723608 0.796659 0.0424352
12 1 0.36632 0.624959 0.773034
13 1 0.664289 0.729396 0.110844
14 1 0.582909 0.0982588 0.145638
15 1 0.809053 0.902957 0.768984
16 1 0.221396 0.941527 0.601375
17 1 0.385767 0.571722 0.408208
18 1 0.582638 0.958639 0.655141
19 1 0.475446 0.625368 0.371039
ITEM: TIMESTEP
13
ITEM: NUMBER OF ATOMS
19
ITEM: BOX BOUNDS ff ff ff
-5.0000000000000000e+00 5.0000000000000000e+00
-5.0000000000000000e+00 5.0000000000000000e+00
-5.0000000000000000e+00 5.0000000000000000e+00
ITEM: ATOMS id type xs ys zs
1 1 0.442384 0.660452 0.585525
2 1 0.899967 0.471482 0.170883
3 1 0.472645 0.512971 0.366795
4 1 0.316075 0.850235 0.770598
5 1 0.213594 0.895421 0.493832
6 1 0.626671 0.292196 0.709715
7 1 0.969822 0.188369 0.332668
8 1 0.693293 0.469283 0.790418
9 1 0.726914 0.295472 0.656701
10 1 0.245481 0.724372 0.106345
11 1 0.723416 0.796437 0.0426594
12 1 0.366418 0.625159 0.772722
13 1 0.664473 0.729601 0.110638
14 1 0.582911 0.0982613 0.14564
15 1 0.808994 0.902968 0.768955
16 1 0.221186 0.93946 0.597012
17 1 0.384431 0.571114 0.409075
18 1 0.582664 0.958603 0.655171
19 1 0.476798 0.627702 0.37073
ITEM: TIMESTEP
14
ITEM: NUMBER OF ATOMS
19
ITEM: BOX BOUNDS ff ff ff
-5.0000000000000000e+00 5.0000000000000000e+00
-5.0000000000000000e+00 5.0000000000000000e+00
-5.0000000000000000e+00 5.0000000000000000e+00
ITEM: ATOMS id type xs ys zs
1 1 0.442332 0.66039 0.58547
2 1 0.899965 0.471482 0.170885
3 1 0.472505 0.513151 0.366879
4 1 0.316062 0.85022 0.770533
5 1 0.213655 0.895736 0.494586
6 1 0.626703 0.292274 0.709747
7 1 0.96982 0.188371 0.332667
8 1 0.693269 0.469167 0.79035
9 1 0.726902 0.295515 0.656734
10 1 0.245484 0.724371 0.106349
11 1 0.723398 0.796417 0.04268
12 1 0.366445 0.625215 0.772633
13 1 0.664489 0.729617 0.110622
14 1 0.582911 0.098262 0.14564
15 1 0.808977 0.902972 0.768946
16 1 0.221164 0.939109 0.596317
17 1 0.384639 0.571087 0.409066
18 1 0.582671 0.958593 0.65518
19 1 0.476745 0.627611 0.370799
ITEM: TIMESTEP
15
ITEM: NUMBER OF ATOMS
19
ITEM: BOX BOUNDS ff ff ff
-5.0000000000000000e+00 5.0000000000000000e+00
-5.0000000000000000e+00 5.0000000000000000e+00
-5.0000000000000000e+00 5.0000000000000000e+00
ITEM: ATOMS id type xs ys zs
1 1 0.44222 0.660257 0.585351
2 1 0.899961 0.471481 0.170887
3 1 0.472004 0.514734 0.367209
4 1 0.316035 0.850183 0.770397
5 1 0.21362 0.895446 0.493947
6 1 0.627337 0.292464 0.709518
7 1 0.969817 0.188378 0.332665
8 1 0.693218 0.468912 0.7902
9 1 0.726311 0.295589 0.657105
10 1 0.24549 0.724368 0.106358
11 1 0.723467 0.796493 0.0426023
12 1 0.366505 0.625336 0.772443
13 1 0.664415 0.729531 0.110711
14 1 0.582912 0.0982635 0.145641
15 1 0.808941 0.902978 0.768929
16 1 0.221279 0.939325 0.597078
17 1 0.386209 0.571415 0.408567
18 1 0.582687 0.958572 0.655198
19 1 0.475708 0.625833 0.371278
ITEM: TIMESTEP
16
ITEM: NUMBER OF ATOMS
19
ITEM: BOX BOUNDS ff ff ff
-5.0000000000000000e+00 5.0000000000000000e+00
-5.0000000000000000e+00 5.0000000000000000e+00
-5.0000000000000000e+00 5.0000000000000000e+00
ITEM: ATOMS id type xs ys zs
1 1 0.442189 0.660218 0.585316
2 1 0.899959 0.471481 0.170888
3 1 0.472255 0.514338 0.367083
4 1 0.316027 0.850173 0.770358
5 1 0.213626 0.89545 0.493968
6 1 0.627316 0.292512 0.70956
7 1 0.969816 0.188379 0.332664
8 1 0.693203 0.468839 0.790157
9 1 0.726344 0.295617 0.657104
10 1 0.245492 0.724367 0.10636
11 1 0.723462 0.796486 0.0426088
12 1 0.366521 0.625371 0.772389
13 1 0.664419 0.729535 0.110707
14 1 0.582913 0.098264 0.145642
15 1 0.808931 0.90298 0.768924
16 1 0.221297 0.9393 0.597091
17 1 0.385767 0.571493 0.408822
18 1 0.582692 0.958566 0.655203
19 1 0.475907 0.62619 0.371237
ITEM: TIMESTEP
17
ITEM: NUMBER OF ATOMS
19
ITEM: BOX BOUNDS ff ff ff
-5.0000000000000000e+00 5.0000000000000000e+00
-5.0000000000000000e+00 5.0000000000000000e+00
-5.0000000000000000e+00 5.0000000000000000e+00
ITEM: ATOMS id type xs ys zs
1 1 0.442129 0.660146 0.58525
2 1 0.899957 0.47148 0.17089
3 1 0.472409 0.514141 0.367018
4 1 0.316013 0.850153 0.770285
5 1 0.213635 0.895455 0.494003
6 1 0.6273 0.292604 0.709628
7 1 0.969814 0.188383 0.332663
8 1 0.693175 0.4687 0.790075
9 1 0.726383 0.295669 0.657115
10 1 0.245496 0.724366 0.106365
11 1 0.723456 0.796478 0.042617
12 1 0.366553 0.625436 0.772286
13 1 0.664423 0.729539 0.110705
14 1 0.582913 0.0982648 0.145642
15 1 0.808912 0.902984 0.768914
16 1 0.221331 0.939255 0.597122
17 1 0.385536 0.571583 0.409032
18 1 0.5827 0.958555 0.655213
19 1 0.476002 0.626369 0.371262
ITEM: TIMESTEP
18
ITEM: NUMBER OF ATOMS
19
ITEM: BOX BOUNDS ff ff ff
-5.0000000000000000e+00 5.0000000000000000e+00
-5.0000000000000000e+00 5.0000000000000000e+00
-5.0000000000000000e+00 5.0000000000000000e+00
ITEM: ATOMS id type xs ys zs
1 1 0.439281 0.656703 0.582105
2 1 0.899854 0.471458 0.170957
3 1 0.472711 0.515707 0.367625
4 1 0.31532 0.84924 0.766811
5 1 0.214069 0.895566 0.495329
6 1 0.627643 0.297028 0.712241
7 1 0.969724 0.18854 0.332603
8 1 0.691838 0.462072 0.786175
9 1 0.727158 0.298109 0.658206
10 1 0.245661 0.724297 0.106576
11 1 0.723316 0.796265 0.04282
12 1 0.368051 0.628501 0.767431
13 1 0.664453 0.72951 0.110768
14 1 0.582939 0.0983026 0.14567
15 1 0.808006 0.903156 0.768467
16 1 0.222964 0.937261 0.598919
17 1 0.386656 0.574144 0.413471
18 1 0.583102 0.958022 0.655675
19 1 0.475389 0.625677 0.374234
ITEM: TIMESTEP
19
ITEM: NUMBER OF ATOMS
19
ITEM: BOX BOUNDS ff ff ff
-5.0000000000000000e+00 5.0000000000000000e+00
-5.0000000000000000e+00 5.0000000000000000e+00
-5.0000000000000000e+00 5.0000000000000000e+00
ITEM: ATOMS id type xs ys zs
1 1 0.435006 0.651528 0.577351
2 1 0.8997 0.471426 0.171058
3 1 0.472692 0.517187 0.368702
4 1 0.314278 0.847874 0.761596
5 1 0.214707 0.895682 0.497193
6 1 0.628579 0.303713 0.715962
7 1 0.969589 0.188775 0.332515
8 1 0.689818 0.452072 0.780297
9 1 0.727915 0.301778 0.660072
10 1 0.245908 0.724194 0.106891
11 1 0.723177 0.796026 0.0430421
12 1 0.370297 0.633094 0.760145
13 1 0.664426 0.729387 0.110944
14 1 0.582977 0.0983591 0.145711
15 1 0.80665 0.903413 0.767798
16 1 0.225428 0.934319 0.601742
17 1 0.387676 0.577052 0.420418
18 1 0.583704 0.957225 0.656368
19 1 0.475607 0.626455 0.378276
ITEM: TIMESTEP
20
ITEM: NUMBER OF ATOMS
19
ITEM: BOX BOUNDS ff ff ff
-5.0000000000000000e+00 5.0000000000000000e+00
-5.0000000000000000e+00 5.0000000000000000e+00
-5.0000000000000000e+00 5.0000000000000000e+00
ITEM: ATOMS id type xs ys zs
1 1 0.430894 0.646506 0.572565
2 1 0.899555 0.471396 0.171154
3 1 0.47079 0.516955 0.370576
4 1 0.313261 0.846603 0.756597
5 1 0.215285 0.895684 0.498678
6 1 0.630869 0.310432 0.718971
7 1 0.969462 0.188997 0.332431
8 1 0.687767 0.442072 0.774459
9 1 0.727367 0.305392 0.662628
10 1 0.246141 0.724098 0.107188
11 1 0.723263 0.796046 0.0430016
12 1 0.372425 0.637445 0.753176
13 1 0.664186 0.729027 0.11136
14 1 0.583013 0.0984124 0.14575
15 1 0.805367 0.903657 0.767165
16 1 0.227822 0.931605 0.604758
17 1 0.387733 0.577093 0.427514
18 1 0.584276 0.956473 0.657022
19 1 0.478658 0.631667 0.381091
ITEM: TIMESTEP
21
ITEM: NUMBER OF ATOMS
19
ITEM: BOX BOUNDS ff ff ff
-5.0000000000000000e+00 5.0000000000000000e+00
-5.0000000000000000e+00 5.0000000000000000e+00
-5.0000000000000000e+00 5.0000000000000000e+00
ITEM: ATOMS id type xs ys zs
1 1 0.427017 0.641717 0.567802
2 1 0.899421 0.471367 0.171242
3 1 0.46804 0.518733 0.373167
4 1 0.312288 0.845451 0.751903
5 1 0.215842 0.895743 0.500233
6 1 0.633084 0.31725 0.722098
7 1 0.969346 0.189202 0.332353
8 1 0.685659 0.432072 0.768682
9 1 0.726975 0.308882 0.665024
10 1 0.246355 0.724009 0.107462
11 1 0.723279 0.795992 0.0430378
12 1 0.374395 0.641474 0.746661
13 1 0.664028 0.728767 0.111669
14 1 0.583047 0.0984615 0.145785
15 1 0.804178 0.903883 0.766578
16 1 0.230052 0.928994 0.607436
17 1 0.390005 0.577141 0.433131
18 1 0.584809 0.955779 0.657629
19 1 0.480316 0.634642 0.384188
ITEM: TIMESTEP
22
ITEM: NUMBER OF ATOMS
19
ITEM: BOX BOUNDS ff ff ff
-5.0000000000000000e+00 5.0000000000000000e+00
-5.0000000000000000e+00 5.0000000000000000e+00
-5.0000000000000000e+00 5.0000000000000000e+00
ITEM: ATOMS id type xs ys zs
1 1 0.423985 0.637773 0.563261
2 1 0.899325 0.471347 0.171306
3 1 0.465393 0.523306 0.376045
4 1 0.311486 0.844685 0.74829
5 1 0.216333 0.895964 0.501974
6 1 0.633978 0.324559 0.726309
7 1 0.969261 0.18935 0.332297
8 1 0.683301 0.422072 0.763146
9 1 0.728233 0.311795 0.666166
10 1 0.246509 0.723946 0.107659
11 1 0.723033 0.795662 0.0433617
12 1 0.375826 0.644414 0.741754
13 1 0.664171 0.72887 0.111595
14 1 0.583071 0.098497 0.145811
15 1 0.803309 0.904049 0.766149
16 1 0.231704 0.926793 0.608972
17 1 0.395034 0.578376 0.436355
18 1 0.585203 0.955276 0.658071
19 1 0.47898 0.632824 0.387562
ITEM: TIMESTEP
23
ITEM: NUMBER OF ATOMS
19
ITEM: BOX BOUNDS ff ff ff
-5.0000000000000000e+00 5.0000000000000000e+00
-5.0000000000000000e+00 5.0000000000000000e+00
-5.0000000000000000e+00 5.0000000000000000e+00
ITEM: ATOMS id type xs ys zs
1 1 0.422743 0.636067 0.561092
2 1 0.899287 0.471339 0.171331
3 1 0.465147 0.524178 0.376451
4 1 0.311144 0.844407 0.746814
5 1 0.216529 0.896052 0.502671
6 1 0.634538 0.32769 0.728018
7 1 0.969228 0.189408 0.332275
8 1 0.682317 0.417684 0.760703
9 1 0.728577 0.313139 0.666828
10 1 0.24657 0.723921 0.107735
11 1 0.722947 0.795544 0.0434768
12 1 0.376385 0.645569 0.739788
13 1 0.664217 0.7289 0.111577
14 1 0.583081 0.0985108 0.145821
15 1 0.802967 0.904115 0.76598
16 1 0.232383 0.925893 0.609619
17 1 0.396107 0.579581 0.438768
18 1 0.585359 0.955079 0.658245
19 1 0.47861 0.632482 0.388889
ITEM: TIMESTEP
24
ITEM: NUMBER OF ATOMS
19
ITEM: BOX BOUNDS ff ff ff
-5.0000000000000000e+00 5.0000000000000000e+00
-5.0000000000000000e+00 5.0000000000000000e+00
-5.0000000000000000e+00 5.0000000000000000e+00
ITEM: ATOMS id type xs ys zs
1 1 0.422542 0.635777 0.560692
2 1 0.899281 0.471338 0.171335
3 1 0.465189 0.524171 0.376428
4 1 0.311087 0.844367 0.746576
5 1 0.216559 0.896064 0.502776
6 1 0.634547 0.327989 0.728203
7 1 0.969223 0.189417 0.332272
8 1 0.682276 0.417157 0.760363
9 1 0.728596 0.313382 0.666972
10 1 0.246579 0.723917 0.107747
11 1 0.722938 0.795531 0.0434896
12 1 0.376471 0.645748 0.739477
13 1 0.66422 0.7289 0.111579
14 1 0.583082 0.0985129 0.145823
15 1 0.802913 0.904125 0.765954
16 1 0.232494 0.925749 0.609731
17 1 0.396146 0.579833 0.439311
18 1 0.585384 0.955049 0.658272
19 1 0.478609 0.632533 0.389082
ITEM: TIMESTEP
25
ITEM: NUMBER OF ATOMS
19
ITEM: BOX BOUNDS ff ff ff
-5.0000000000000000e+00 5.0000000000000000e+00
-5.0000000000000000e+00 5.0000000000000000e+00
-5.0000000000000000e+00 5.0000000000000000e+00
ITEM: ATOMS id type xs ys zs
1 1 0.421435 0.63373 0.556958
2 1 0.899257 0.471332 0.171351
3 1 0.467387 0.520193 0.374074
4 1 0.310717 0.844305 0.745301
5 1 0.216673 0.896066 0.503087
6 1 0.631387 0.321999 0.725993
7 1 0.969202 0.189454 0.332257
8 1 0.686376 0.421094 0.760621
9 1 0.727605 0.315491 0.668878
10 1 0.246617 0.723902 0.107795
11 1 0.723043 0.795637 0.0433777
12 1 0.376818 0.646513 0.738003
13 1 0.66409 0.728738 0.111753
14 1 0.583088 0.0985217 0.145829
15 1 0.802681 0.90417 0.765839
16 1 0.23313 0.925024 0.610605
17 1 0.392862 0.582621 0.446475
18 1 0.585496 0.954921 0.65839
19 1 0.480273 0.635848 0.389497
ITEM: TIMESTEP
26
ITEM: NUMBER OF ATOMS
19
ITEM: BOX BOUNDS ff ff ff
-5.0000000000000000e+00 5.0000000000000000e+00
-5.0000000000000000e+00 5.0000000000000000e+00
-5.0000000000000000e+00 5.0000000000000000e+00
ITEM: ATOMS id type xs ys zs
1 1 0.420142 0.631206 0.55183
2 1 0.899236 0.471328 0.171365
3 1 0.467634 0.520624 0.374213
4 1 0.310292 0.844341 0.743983
5 1 0.2168 0.896099 0.503515
6 1 0.630049 0.319549 0.725099
7 1 0.969184 0.189486 0.332245
8 1 0.688703 0.421035 0.759251
9 1 0.726571 0.318048 0.671101
10 1 0.246648 0.72389 0.107835
11 1 0.72308 0.795667 0.0433434
12 1 0.377096 0.647178 0.736636
13 1 0.664033 0.728659 0.111839
14 1 0.583093 0.0985291 0.145834
15 1 0.802474 0.90421 0.765737
16 1 0.233777 0.92423 0.611417
17 1 0.394055 0.58527 0.451468
18 1 0.5856 0.954811 0.658493
19 1 0.479668 0.635397 0.390878
ITEM: TIMESTEP
27
ITEM: NUMBER OF ATOMS
19
ITEM: BOX BOUNDS ff ff ff
-5.0000000000000000e+00 5.0000000000000000e+00
-5.0000000000000000e+00 5.0000000000000000e+00
-5.0000000000000000e+00 5.0000000000000000e+00
ITEM: ATOMS id type xs ys zs
1 1 0.420046 0.630617 0.550114
2 1 0.89923 0.471326 0.171369
3 1 0.465642 0.52534 0.377111
4 1 0.309993 0.844494 0.743231
5 1 0.216909 0.896196 0.504039
6 1 0.63023 0.322504 0.726923
7 1 0.969179 0.189497 0.332241
8 1 0.68777 0.416035 0.75648
9 1 0.727311 0.320109 0.672036
10 1 0.246658 0.723887 0.107846
11 1 0.72294 0.795505 0.0435083
12 1 0.377142 0.647403 0.736119
13 1 0.664167 0.728807 0.11169
14 1 0.583095 0.0985314 0.145836
15 1 0.802398 0.904225 0.7657
16 1 0.234109 0.923684 0.611617
17 1 0.39846 0.584976 0.449028
18 1 0.585642 0.954775 0.658531
19 1 0.477215 0.631648 0.392664
ITEM: TIMESTEP
28
ITEM: NUMBER OF ATOMS
19
ITEM: BOX BOUNDS ff ff ff
-5.0000000000000000e+00 5.0000000000000000e+00
-5.0000000000000000e+00 5.0000000000000000e+00
-5.0000000000000000e+00 5.0000000000000000e+00
ITEM: ATOMS id type xs ys zs
1 1 0.420042 0.630165 0.548682
2 1 0.899225 0.471325 0.171373
3 1 0.463858 0.526629 0.379025
4 1 0.309721 0.844641 0.742556
5 1 0.216989 0.896253 0.504395
6 1 0.630336 0.324577 0.728212
7 1 0.969174 0.189505 0.332237
8 1 0.68734 0.411982 0.754054
9 1 0.727622 0.322102 0.673162
10 1 0.246665 0.723884 0.107856
11 1 0.722892 0.795448 0.0435662
12 1 0.377176 0.647595 0.73568
13 1 0.664211 0.728853 0.111645
14 1 0.583097 0.0985333 0.145837
15 1 0.802332 0.904238 0.765668
16 1 0.234424 0.923222 0.611912
17 1 0.399816 0.583556 0.448567
18 1 0.585679 0.954745 0.658563
19 1 0.477536 0.632305 0.393092
ITEM: TIMESTEP
29
ITEM: NUMBER OF ATOMS
19
ITEM: BOX BOUNDS ff ff ff
-5.0000000000000000e+00 5.0000000000000000e+00
-5.0000000000000000e+00 5.0000000000000000e+00
-5.0000000000000000e+00 5.0000000000000000e+00
ITEM: ATOMS id type xs ys zs
1 1 0.420176 0.629584 0.54658
2 1 0.899216 0.471323 0.171379
3 1 0.461815 0.524696 0.380446
4 1 0.309253 0.844907 0.741408
5 1 0.217096 0.896308 0.504833
6 1 0.628651 0.324574 0.729121
7 1 0.969166 0.189519 0.332231
8 1 0.689002 0.40839 0.750774
9 1 0.727627 0.325718 0.675515
10 1 0.246678 0.72388 0.107871
11 1 0.72292 0.795475 0.043537
12 1 0.377225 0.647908 0.73497
13 1 0.664175 0.728806 0.111696
14 1 0.583099 0.0985364 0.14584
15 1 0.802225 0.90426 0.765615
16 1 0.234988 0.922479 0.612584
17 1 0.398455 0.580782 0.450375
18 1 0.58574 0.954695 0.658615
19 1 0.480627 0.637718 0.392693
ITEM: TIMESTEP
30
ITEM: NUMBER OF ATOMS
19
ITEM: BOX BOUNDS ff ff ff
-5.0000000000000000e+00 5.0000000000000000e+00
-5.0000000000000000e+00 5.0000000000000000e+00
-5.0000000000000000e+00 5.0000000000000000e+00
ITEM: ATOMS id type xs ys zs
1 1 0.420743 0.629803 0.545954
2 1 0.899207 0.471321 0.171385
3 1 0.46156 0.523824 0.380611
4 1 0.308746 0.845214 0.740197
5 1 0.217191 0.896339 0.505186
6 1 0.623816 0.319221 0.728262
7 1 0.969159 0.189533 0.332225
8 1 0.694556 0.410085 0.748814
9 1 0.72689 0.329397 0.678315
10 1 0.24669 0.723876 0.107886
11 1 0.723011 0.795574 0.0434352
12 1 0.377265 0.648217 0.734285
13 1 0.664077 0.728688 0.111818
14 1 0.583101 0.0985394 0.145842
15 1 0.802119 0.904281 0.765563
16 1 0.235602 0.921722 0.613406
17 1 0.397208 0.579761 0.450769
18 1 0.585802 0.954646 0.658667
19 1 0.481394 0.639519 0.393462
ITEM: TIMESTEP
31
ITEM: NUMBER OF ATOMS
19
ITEM: BOX BOUNDS ff ff ff
-5.0000000000000000e+00 5.0000000000000000e+00
-5.0000000000000000e+00 5.0000000000000000e+00
-5.0000000000000000e+00 5.0000000000000000e+00
ITEM: ATOMS id type xs ys zs
1 1 0.421519 0.63055 0.546451
2 1 0.899201 0.471319 0.171389
3 1 0.462454 0.524831 0.380261
4 1 0.308301 0.845511 0.739166
5 1 0.217287 0.896388 0.505582
6 1 0.623922 0.318448 0.727688
7 1 0.969153 0.189544 0.332221
8 1 0.69576 0.409588 0.747815
9 1 0.725566 0.330682 0.679875
10 1 0.246699 0.723873 0.107898
11 1 0.723018 0.795577 0.0434306
12 1 0.377289 0.648452 0.733773
13 1 0.664065 0.72867 0.111839
14 1 0.583103 0.0985416 0.145843
15 1 0.802036 0.904298 0.765523
16 1 0.236108 0.921054 0.614014
17 1 0.397036 0.58026 0.449496
18 1 0.585849 0.954609 0.658707
19 1 0.479771 0.637364 0.395112
ITEM: TIMESTEP
32
ITEM: NUMBER OF ATOMS
19
ITEM: BOX BOUNDS ff ff ff
-5.0000000000000000e+00 5.0000000000000000e+00
-5.0000000000000000e+00 5.0000000000000000e+00
-5.0000000000000000e+00 5.0000000000000000e+00
ITEM: ATOMS id type xs ys zs
1 1 0.421882 0.630774 0.546325
2 1 0.899197 0.471318 0.171392
3 1 0.463265 0.525398 0.379819
4 1 0.308029 0.845705 0.738557
5 1 0.217352 0.896429 0.505868
6 1 0.624855 0.319158 0.727634
7 1 0.96915 0.189549 0.332218
8 1 0.694836 0.410003 0.748587
9 1 0.72555 0.329566 0.679151
10 1 0.246704 0.723871 0.107904
11 1 0.722994 0.795548 0.0434598
12 1 0.377301 0.648577 0.733498
13 1 0.664086 0.728692 0.111818
14 1 0.583104 0.0985429 0.145844
15 1 0.801992 0.904307 0.765501
16 1 0.236398 0.920646 0.614322
17 1 0.396885 0.581054 0.449336
18 1 0.585875 0.954589 0.658729
19 1 0.47868 0.635832 0.39612
ITEM: TIMESTEP
33
ITEM: NUMBER OF ATOMS
19
ITEM: BOX BOUNDS ff ff ff
-5.0000000000000000e+00 5.0000000000000000e+00
-5.0000000000000000e+00 5.0000000000000000e+00
-5.0000000000000000e+00 5.0000000000000000e+00
ITEM: ATOMS id type xs ys zs
1 1 0.422418 0.630914 0.545603
2 1 0.899192 0.471317 0.171395
3 1 0.464048 0.525319 0.379311
4 1 0.307538 0.846083 0.737492
5 1 0.217469 0.896503 0.506383
6 1 0.626599 0.321436 0.728155
7 1 0.969146 0.189558 0.332215
8 1 0.69255 0.409124 0.749257
9 1 0.726081 0.328181 0.677948
10 1 0.246712 0.723869 0.107913
11 1 0.722962 0.795509 0.0434992
12 1 0.37732 0.648766 0.733077
13 1 0.664114 0.728719 0.111791
14 1 0.583105 0.0985447 0.145846
15 1 0.801923 0.90432 0.765467
16 1 0.236903 0.919932 0.614852
17 1 0.39574 0.581356 0.449966
18 1 0.585915 0.954558 0.658762
19 1 0.478401 0.635551 0.397151
ITEM: TIMESTEP
34
ITEM: NUMBER OF ATOMS
19
ITEM: BOX BOUNDS ff ff ff
-5.0000000000000000e+00 5.0000000000000000e+00
-5.0000000000000000e+00 5.0000000000000000e+00
-5.0000000000000000e+00 5.0000000000000000e+00
ITEM: ATOMS id type xs ys zs
1 1 0.42326 0.631411 0.545313
2 1 0.899186 0.471316 0.1714
3 1 0.464009 0.525945 0.379696
4 1 0.306922 0.846568 0.736172
5 1 0.217598 0.896575 0.506935
6 1 0.62669 0.322085 0.728519
7 1 0.969141 0.189568 0.33221
8 1 0.691938 0.408702 0.749306
9 1 0.726589 0.327968 0.677522
10 1 0.24672 0.723866 0.107923
11 1 0.722968 0.795512 0.0434951
12 1 0.377343 0.648988 0.732583
13 1 0.664103 0.728702 0.11181
14 1 0.583107 0.0985469 0.145847
15 1 0.801842 0.904337 0.765427
16 1 0.237544 0.919066 0.615597
17 1 0.395249 0.580654 0.449019
18 1 0.585962 0.954522 0.658801
19 1 0.477967 0.635229 0.398507
ITEM: TIMESTEP
35
ITEM: NUMBER OF ATOMS
19
ITEM: BOX BOUNDS ff ff ff
-5.0000000000000000e+00 5.0000000000000000e+00
-5.0000000000000000e+00 5.0000000000000000e+00
-5.0000000000000000e+00 5.0000000000000000e+00
ITEM: ATOMS id type xs ys zs
1 1 0.428514 0.633163 0.53928
2 1 0.899141 0.471304 0.171431
3 1 0.464096 0.527123 0.381294
4 1 0.302199 0.850371 0.726172
5 1 0.218567 0.897103 0.511071
6 1 0.623089 0.319418 0.728675
7 1 0.969102 0.189641 0.332178
8 1 0.694485 0.409918 0.748617
9 1 0.727548 0.329528 0.677962
10 1 0.246783 0.723845 0.108001
11 1 0.723021 0.795547 0.0434531
12 1 0.377511 0.650569 0.729035
13 1 0.664017 0.72857 0.111958
14 1 0.583119 0.0985624 0.145858
15 1 0.801258 0.904455 0.765141
16 1 0.242397 0.912529 0.6213
17 1 0.389811 0.576558 0.447666
18 1 0.586302 0.954259 0.659081