ITEM: TIMESTEP
0
ITEM: NUMBER OF ATOMS
9
ITEM: BOX BOUNDS ff ff ff
-5.0000000000000000e+00 5.0000000000000000e+00
-5.0000000000000000e+00 5.0000000000000000e+00
-5.0000000000000000e+00 5.0000000000000000e+00
ITEM: ATOMS id type xs ys zs
1 1 0.291223 0.584451 0.872434
2 1 0.996492 0.041722 0.22211
3 1 0.00478267 0.382283 0.0291442
4 1 0.827063 0.451296 0.932522
5 1 0.896061 0.0927095 0.168675
6 1 0.91613 0.391647 0.403773
7 1 0.213182 0.949351 0.741022
8 1 0.36159 0.245987 0.307893
9 1 0.753421 0.740793 0.50204
ITEM: TIMESTEP
1
ITEM: NUMBER OF ATOMS
9
ITEM: BOX BOUNDS ff ff ff
-5.0000000000000000e+00 5.0000000000000000e+00
-5.0000000000000000e+00 5.0000000000000000e+00
-5.0000000000000000e+00 5.0000000000000000e+00
ITEM: ATOMS id type xs ys zs
1 1 0.291223 0.584455 0.872432
2 1 0.991492 0.0442633 0.219452
3 1 0.00478359 0.382283 0.029145
4 1 0.827063 0.451296 0.932521
5 1 0.90106 0.0901758 0.171338
6 1 0.916128 0.391643 0.403769
7 1 0.213183 0.949347 0.741024
8 1 0.36159 0.245988 0.307892
9 1 0.753422 0.740789 0.502039
ITEM: TIMESTEP
2
ITEM: NUMBER OF ATOMS
9
ITEM: BOX BOUNDS ff ff ff
-5.0000000000000000e+00 5.0000000000000000e+00
-5.0000000000000000e+00 5.0000000000000000e+00
-5.0000000000000000e+00 5.0000000000000000e+00
ITEM: ATOMS id type xs ys zs
1 1 0.291223 0.584457 0.872432
2 1 0.991488 0.0442669 0.219451
3 1 0.00478401 0.382282 0.0291453
4 1 0.827063 0.451297 0.93252
5 1 0.901064 0.0901758 0.171342
6 1 0.916127 0.391641 0.403768
7 1 0.213183 0.949345 0.741024
8 1 0.36159 0.245988 0.307892
9 1 0.753423 0.740787 0.502039
ITEM: TIMESTEP
3
ITEM: NUMBER OF ATOMS
9
ITEM: BOX BOUNDS ff ff ff
-5.0000000000000000e+00 5.0000000000000000e+00
-5.0000000000000000e+00 5.0000000000000000e+00
-5.0000000000000000e+00 5.0000000000000000e+00
ITEM: ATOMS id type xs ys zs
1 1 0.291209 0.584647 0.872351
2 1 0.991473 0.0444255 0.219558
3 1 0.00483166 0.382265 0.0291827
4 1 0.827042 0.451314 0.932467
5 1 0.901031 0.0904161 0.171501
6 1 0.91605 0.391433 0.403582
7 1 0.213234 0.949144 0.741091
8 1 0.36158 0.246012 0.307862
9 1 0.753493 0.740582 0.502018
ITEM: TIMESTEP
4
ITEM: NUMBER OF ATOMS
9
ITEM: BOX BOUNDS ff ff ff
-5.0000000000000000e+00 5.0000000000000000e+00
-5.0000000000000000e+00 5.0000000000000000e+00
-5.0000000000000000e+00 5.0000000000000000e+00
ITEM: ATOMS id type xs ys zs
1 1 0.291204 0.584715 0.872322
2 1 0.991445 0.0444942 0.219584
3 1 0.00484875 0.382259 0.0291961
4 1 0.827034 0.451321 0.932447
5 1 0.901042 0.0904906 0.17157
6 1 0.916022 0.391358 0.403516
7 1 0.213252 0.949072 0.741114
8 1 0.361577 0.246021 0.307852
9 1 0.753518 0.740509 0.502011
ITEM: TIMESTEP
5
ITEM: NUMBER OF ATOMS
9
ITEM: BOX BOUNDS ff ff ff
-5.0000000000000000e+00 5.0000000000000000e+00
-5.0000000000000000e+00 5.0000000000000000e+00
-5.0000000000000000e+00 5.0000000000000000e+00
ITEM: ATOMS id type xs ys zs
1 1 0.291187 0.584951 0.872221
2 1 0.991389 0.0447113 0.219698
3 1 0.00490804 0.382238 0.0292426
4 1 0.827008 0.451343 0.932381
5 1 0.90104 0.0907702 0.171789
6 1 0.915925 0.391099 0.403285
7 1 0.213315 0.948822 0.741197
8 1 0.361565 0.246051 0.307815
9 1 0.753606 0.740254 0.501985
ITEM: TIMESTEP
6
ITEM: NUMBER OF ATOMS
9
ITEM: BOX BOUNDS ff ff ff
-5.0000000000000000e+00 5.0000000000000000e+00
-5.0000000000000000e+00 5.0000000000000000e+00
-5.0000000000000000e+00 5.0000000000000000e+00
ITEM: ATOMS id type xs ys zs
1 1 0.290976 0.587918 0.870956
2 1 0.990886 0.0473297 0.221226
3 1 0.00565155 0.38197 0.0298263
4 1 0.826683 0.451623 0.931543
5 1 0.900806 0.0943809 0.174423
6 1 0.914713 0.387847 0.400387
7 1 0.214107 0.945682 0.742234
8 1 0.361415 0.246427 0.307356
9 1 0.754706 0.737061 0.501661
ITEM: TIMESTEP
7
ITEM: NUMBER OF ATOMS
9
ITEM: BOX BOUNDS ff ff ff
-5.0000000000000000e+00 5.0000000000000000e+00
-5.0000000000000000e+00 5.0000000000000000e+00
-5.0000000000000000e+00 5.0000000000000000e+00
ITEM: ATOMS id type xs ys zs
1 1 0.290397 0.596059 0.867486
2 1 0.989681 0.0544241 0.225512
3 1 0.00769187 0.381236 0.031428
4 1 0.825789 0.452392 0.929245
5 1 0.89999 0.104381 0.18156
6 1 0.911388 0.378922 0.392435
7 1 0.21628 0.937067 0.745081
8 1 0.361002 0.247461 0.306094
9 1 0.757725 0.728297 0.500773
ITEM: TIMESTEP
8
ITEM: NUMBER OF ATOMS
9
ITEM: BOX BOUNDS ff ff ff
-5.0000000000000000e+00 5.0000000000000000e+00
-5.0000000000000000e+00 5.0000000000000000e+00
-5.0000000000000000e+00 5.0000000000000000e+00
ITEM: ATOMS id type xs ys zs
1 1 0.289826 0.604073 0.864069
2 1 0.988772 0.0612534 0.229867
3 1 0.0097003 0.380513 0.0330046
4 1 0.82491 0.453148 0.926982
5 1 0.898908 0.114381 0.188451
6 1 0.908115 0.370134 0.384605
7 1 0.218419 0.928586 0.747883
8 1 0.360597 0.248478 0.304853
9 1 0.760696 0.719671 0.499898
ITEM: TIMESTEP
9
ITEM: NUMBER OF ATOMS
9
ITEM: BOX BOUNDS ff ff ff
-5.0000000000000000e+00 5.0000000000000000e+00
-5.0000000000000000e+00 5.0000000000000000e+00
-5.0000000000000000e+00 5.0000000000000000e+00
ITEM: ATOMS id type xs ys zs
1 1 0.289245 0.612198 0.860607
2 1 0.987597 0.0683264 0.234164
3 1 0.0117327 0.379782 0.0346001
4 1 0.82402 0.453914 0.924693
5 1 0.898067 0.124381 0.195562
6 1 0.904807 0.361198 0.376653
7 1 0.220587 0.919989 0.750724
8 1 0.360186 0.249508 0.303596
9 1 0.763702 0.710944 0.499013
ITEM: TIMESTEP
10
ITEM: NUMBER OF ATOMS
9
ITEM: BOX BOUNDS ff ff ff
-5.0000000000000000e+00 5.0000000000000000e+00
-5.0000000000000000e+00 5.0000000000000000e+00
-5.0000000000000000e+00 5.0000000000000000e+00
ITEM: ATOMS id type xs ys zs
1 1 0.28866 0.620376 0.857122
2 1 0.986301 0.0755165 0.238441
3 1 0.0137778 0.379046 0.0362054
4 1 0.823125 0.454684 0.92239
5 1 0.897332 0.134381 0.202772
6 1 0.90148 0.352194 0.368644
7 1 0.222768 0.911336 0.753584
8 1 0.359773 0.250544 0.302332
9 1 0.766726 0.702162 0.498122
ITEM: TIMESTEP
11
ITEM: NUMBER OF ATOMS
9
ITEM: BOX BOUNDS ff ff ff
-5.0000000000000000e+00 5.0000000000000000e+00
-5.0000000000000000e+00 5.0000000000000000e+00
-5.0000000000000000e+00 5.0000000000000000e+00
ITEM: ATOMS id type xs ys zs
1 1 0.288452 0.623243 0.855902
2 1 0.985488 0.078274 0.239795
3 1 0.0144905 0.378789 0.0367649
4 1 0.822813 0.454953 0.921588
5 1 0.897433 0.137679 0.205465
6 1 0.900327 0.348991 0.365809
7 1 0.223533 0.908303 0.754586
8 1 0.359629 0.250904 0.301891
9 1 0.767779 0.699103 0.497812
ITEM: TIMESTEP
12
ITEM: NUMBER OF ATOMS
9
ITEM: BOX BOUNDS ff ff ff
-5.0000000000000000e+00 5.0000000000000000e+00
-5.0000000000000000e+00 5.0000000000000000e+00
-5.0000000000000000e+00 5.0000000000000000e+00
ITEM: ATOMS id type xs ys zs
1 1 0.288265 0.625812 0.854808
2 1 0.984845 0.0806862 0.241043
3 1 0.0151285 0.37856 0.0372657
4 1 0.822534 0.455193 0.920869
5 1 0.897437 0.140694 0.207846
6 1 0.899295 0.346115 0.363266
7 1 0.224217 0.905586 0.755485
8 1 0.3595 0.251228 0.301497
9 1 0.768721 0.696364 0.497534
ITEM: TIMESTEP
13
ITEM: NUMBER OF ATOMS
9
ITEM: BOX BOUNDS ff ff ff
-5.0000000000000000e+00 5.0000000000000000e+00
-5.0000000000000000e+00 5.0000000000000000e+00
-5.0000000000000000e+00 5.0000000000000000e+00
ITEM: ATOMS id type xs ys zs
1 1 0.287658 0.634152 0.851259
2 1 0.983051 0.0883175 0.245203
3 1 0.0171991 0.377815 0.0388911
4 1 0.821628 0.455973 0.918538
5 1 0.897159 0.150694 0.21547
6 1 0.895946 0.336769 0.355001
7 1 0.22644 0.896765 0.758401
8 1 0.359082 0.252276 0.300216
9 1 0.771781 0.687477 0.496632
ITEM: TIMESTEP
14
ITEM: NUMBER OF ATOMS
9
ITEM: BOX BOUNDS ff ff ff
-5.0000000000000000e+00 5.0000000000000000e+00
-5.0000000000000000e+00 5.0000000000000000e+00
-5.0000000000000000e+00 5.0000000000000000e+00
ITEM: ATOMS id type xs ys zs
1 1 0.287064 0.642295 0.847794
2 1 0.981612 0.0955419 0.249373
3 1 0.0192199 0.377087 0.0404773
4 1 0.820744 0.456735 0.916263
5 1 0.896575 0.160694 0.222814
6 1 0.89268 0.32763 0.346924
7 1 0.22861 0.888152 0.761249
8 1 0.358674 0.2533 0.298967
9 1 0.774766 0.678804 0.495752
ITEM: TIMESTEP
15
ITEM: NUMBER OF ATOMS
9
ITEM: BOX BOUNDS ff ff ff
-5.0000000000000000e+00 5.0000000000000000e+00
-5.0000000000000000e+00 5.0000000000000000e+00
-5.0000000000000000e+00 5.0000000000000000e+00
ITEM: ATOMS id type xs ys zs
1 1 0.287062 0.642306 0.84779
2 1 0.982055 0.0952086 0.249517
3 1 0.0192202 0.377087 0.0404775
4 1 0.820744 0.456735 0.916263
5 1 0.896126 0.161088 0.222712
6 1 0.892684 0.32757 0.346882
7 1 0.228612 0.888142 0.761253
8 1 0.358674 0.2533 0.298967
9 1 0.774766 0.678803 0.495752
ITEM: TIMESTEP
16
ITEM: NUMBER OF ATOMS
9
ITEM: BOX BOUNDS ff ff ff
-5.0000000000000000e+00 5.0000000000000000e+00
-5.0000000000000000e+00 5.0000000000000000e+00
-5.0000000000000000e+00 5.0000000000000000e+00
ITEM: ATOMS id type xs ys zs
1 1 0.287058 0.642322 0.847784
2 1 0.982295 0.0950365 0.2496
3 1 0.0192206 0.377087 0.0404778
4 1 0.820744 0.456735 0.916262
5 1 0.895879 0.16136 0.222698
6 1 0.892692 0.327471 0.346814
7 1 0.228616 0.888125 0.761259
8 1 0.358674 0.2533 0.298966
9 1 0.774766 0.678802 0.495752
ITEM: TIMESTEP
17
ITEM: NUMBER OF ATOMS
9
ITEM: BOX BOUNDS ff ff ff
-5.0000000000000000e+00 5.0000000000000000e+00
-5.0000000000000000e+00 5.0000000000000000e+00
-5.0000000000000000e+00 5.0000000000000000e+00
ITEM: ATOMS id type xs ys zs
1 1 0.286889 0.643056 0.847523
2 1 0.982602 0.0952857 0.250068
3 1 0.0192385 0.377081 0.0404915
4 1 0.820739 0.456742 0.916245
5 1 0.895227 0.16549 0.225275
6 1 0.893007 0.32314 0.343793
7 1 0.228793 0.887388 0.761517
8 1 0.35867 0.253308 0.298955
9 1 0.774778 0.678749 0.495746
ITEM: TIMESTEP
18
ITEM: NUMBER OF ATOMS
9
ITEM: BOX BOUNDS ff ff ff
-5.0000000000000000e+00 5.0000000000000000e+00
-5.0000000000000000e+00 5.0000000000000000e+00
-5.0000000000000000e+00 5.0000000000000000e+00
ITEM: ATOMS id type xs ys zs
1 1 0.286502 0.644739 0.846923
2 1 0.982044 0.0968728 0.250784
3 1 0.0192797 0.377067 0.040523
4 1 0.820727 0.456757 0.916206
5 1 0.894994 0.174012 0.231591
6 1 0.893733 0.31314 0.336816
7 1 0.229199 0.885697 0.762108
8 1 0.358661 0.253328 0.298929
9 1 0.774804 0.678627 0.495732
ITEM: TIMESTEP
19
ITEM: NUMBER OF ATOMS
9
ITEM: BOX BOUNDS ff ff ff
-5.0000000000000000e+00 5.0000000000000000e+00
-5.0000000000000000e+00 5.0000000000000000e+00
-5.0000000000000000e+00 5.0000000000000000e+00
ITEM: ATOMS id type xs ys zs
1 1 0.286127 0.646374 0.84634
2 1 0.979782 0.0999451 0.251105
3 1 0.0193195 0.377053 0.0405534
4 1 0.820715 0.456772 0.916169
5 1 0.896481 0.181045 0.238314
6 1 0.894444 0.30314 0.329825
7 1 0.229594 0.884055 0.762683
8 1 0.358653 0.253346 0.298903
9 1 0.774829 0.678509 0.495719
ITEM: TIMESTEP
20
ITEM: NUMBER OF ATOMS
9
ITEM: BOX BOUNDS ff ff ff
-5.0000000000000000e+00 5.0000000000000000e+00
-5.0000000000000000e+00 5.0000000000000000e+00
-5.0000000000000000e+00 5.0000000000000000e+00
ITEM: ATOMS id type xs ys zs
1 1 0.286101 0.646485 0.846301
2 1 0.977278 0.102473 0.25079
3 1 0.019322 0.377052 0.0405553
4 1 0.820714 0.456773 0.916167
5 1 0.898888 0.180573 0.240114
6 1 0.894538 0.30109 0.328343
7 1 0.229621 0.883943 0.762722
8 1 0.358652 0.253347 0.298902
9 1 0.77483 0.678503 0.495719
ITEM: TIMESTEP
21
ITEM: NUMBER OF ATOMS
9
ITEM: BOX BOUNDS ff ff ff
-5.0000000000000000e+00 5.0000000000000000e+00
-5.0000000000000000e+00 5.0000000000000000e+00
-5.0000000000000000e+00 5.0000000000000000e+00
ITEM: ATOMS id type xs ys zs
1 1 0.286009 0.646883 0.846159
2 1 0.974404 0.105612 0.25061
3 1 0.0193303 0.377049 0.0405616
4 1 0.820712 0.456776 0.916159
5 1 0.901218 0.187452 0.247467
6 1 0.89507 0.29109 0.321179
7 1 0.229717 0.883543 0.762862
8 1 0.358651 0.253351 0.298896
9 1 0.774833 0.678483 0.495718
ITEM: TIMESTEP
22
ITEM: NUMBER OF ATOMS
9
ITEM: BOX BOUNDS ff ff ff
-5.0000000000000000e+00 5.0000000000000000e+00
-5.0000000000000000e+00 5.0000000000000000e+00
-5.0000000000000000e+00 5.0000000000000000e+00
ITEM: ATOMS id type xs ys zs
1 1 0.285971 0.647045 0.846102
2 1 0.974225 0.105825 0.250612
3 1 0.0193336 0.377048 0.0405642
4 1 0.820711 0.456778 0.916156
5 1 0.90109 0.192245 0.251018
6 1 0.895373 0.28609 0.31763
7 1 0.229755 0.883381 0.762919
8 1 0.35865 0.253353 0.298894
9 1 0.774835 0.678475 0.495717
ITEM: TIMESTEP
23
ITEM: NUMBER OF ATOMS
9
ITEM: BOX BOUNDS ff ff ff
-5.0000000000000000e+00 5.0000000000000000e+00
-5.0000000000000000e+00 5.0000000000000000e+00
-5.0000000000000000e+00 5.0000000000000000e+00
ITEM: ATOMS id type xs ys zs
1 1 0.28596 0.647096 0.846084
2 1 0.973573 0.106696 0.250692
3 1 0.0193346 0.377048 0.0405649
4 1 0.820711 0.456778 0.916155
5 1 0.90154 0.193394 0.252301
6 1 0.895573 0.284072 0.316267
7 1 0.229768 0.88333 0.762937
8 1 0.35865 0.253353 0.298894
9 1 0.774835 0.678473 0.495718
ITEM: TIMESTEP
24
ITEM: NUMBER OF ATOMS
9
ITEM: BOX BOUNDS ff ff ff
-5.0000000000000000e+00 5.0000000000000000e+00
-5.0000000000000000e+00 5.0000000000000000e+00
-5.0000000000000000e+00 5.0000000000000000e+00
ITEM: ATOMS id type xs ys zs
1 1 0.285955 0.647117 0.846076
2 1 0.97337 0.10698 0.250728
3 1 0.0193349 0.377048 0.0405652
4 1 0.820711 0.456778 0.916155
5 1 0.9017 0.193284 0.252361
6 1 0.895616 0.283898 0.316173
7 1 0.229773 0.883309 0.762944
8 1 0.35865 0.253353 0.298893
9 1 0.774835 0.678472 0.495718
ITEM: TIMESTEP
25
ITEM: NUMBER OF ATOMS
9
ITEM: BOX BOUNDS ff ff ff
-5.0000000000000000e+00 5.0000000000000000e+00
-5.0000000000000000e+00 5.0000000000000000e+00
-5.0000000000000000e+00 5.0000000000000000e+00
ITEM: ATOMS id type xs ys zs
1 1 0.285953 0.647122 0.846074
2 1 0.973362 0.107002 0.250737
3 1 0.019335 0.377048 0.0405653
4 1 0.820711 0.456778 0.916155
5 1 0.901705 0.193163 0.252272
6 1 0.895619 0.283997 0.316252
7 1 0.229774 0.883303 0.762946
8 1 0.35865 0.253353 0.298893
9 1 0.774835 0.678472 0.495718
ITEM: TIMESTEP
26
ITEM: NUMBER OF ATOMS
9
ITEM: BOX BOUNDS ff ff ff
-5.0000000000000000e+00 5.0000000000000000e+00
-5.0000000000000000e+00 5.0000000000000000e+00
-5.0000000000000000e+00 5.0000000000000000e+00
ITEM: ATOMS id type xs ys zs
1 1 0.285949 0.64714 0.846068
2 1 0.973364 0.107038 0.250766
3 1 0.0193354 0.377047 0.0405655
4 1 0.82071 0.456778 0.916154
5 1 0.901687 0.192917 0.252068
6 1 0.895635 0.284208 0.316427
7 1 0.229778 0.883286 0.762953
8 1 0.35865 0.253353 0.298893
9 1 0.774835 0.678472 0.495718
ITEM: TIMESTEP
27
ITEM: NUMBER OF ATOMS
9
ITEM: BOX BOUNDS ff ff ff
-5.0000000000000000e+00 5.0000000000000000e+00
-5.0000000000000000e+00 5.0000000000000000e+00
-5.0000000000000000e+00 5.0000000000000000e+00
ITEM: ATOMS id type xs ys zs
1 1 0.285947 0.647149 0.846065
2 1 0.97339 0.107027 0.250781
3 1 0.0193355 0.377047 0.0405656
4 1 0.82071 0.456778 0.916154
5 1 0.901646 0.192912 0.252028
6 1 0.89565 0.284224 0.316453
7 1 0.22978 0.883276 0.762956
8 1 0.35865 0.253353 0.298893
9 1 0.774835 0.678471 0.495718
ITEM: TIMESTEP
28
ITEM: NUMBER OF ATOMS
9
ITEM: BOX BOUNDS ff ff ff
-5.0000000000000000e+00 5.0000000000000000e+00
-5.0000000000000000e+00 5.0000000000000000e+00
-5.0000000000000000e+00 5.0000000000000000e+00
ITEM: ATOMS id type xs ys zs
1 1 0.285914 0.647293 0.846014
2 1 0.973703 0.106962 0.251013
3 1 0.0193382 0.377046 0.0405677
4 1 0.82071 0.456779 0.916152
5 1 0.901095 0.192859 0.251494
6 1 0.895884 0.284346 0.316757
7 1 0.229815 0.883132 0.763006
8 1 0.358649 0.253355 0.298891
9 1 0.774836 0.678467 0.495718
ITEM: TIMESTEP
29
ITEM: NUMBER OF ATOMS
9
ITEM: BOX BOUNDS ff ff ff
-5.0000000000000000e+00 5.0000000000000000e+00
-5.0000000000000000e+00 5.0000000000000000e+00
-5.0000000000000000e+00 5.0000000000000000e+00
ITEM: ATOMS id type xs ys zs
1 1 0.285898 0.647362 0.845989
2 1 0.97338 0.107491 0.251128
3 1 0.0193395 0.377046 0.0405686
4 1 0.820709 0.45678 0.916151
5 1 0.901267 0.1929 0.251679
6 1 0.896033 0.283778 0.316457
7 1 0.229832 0.883063 0.763031
8 1 0.358649 0.253355 0.29889
9 1 0.774836 0.678465 0.495718
ITEM: TIMESTEP
30
ITEM: NUMBER OF ATOMS
9
ITEM: BOX BOUNDS ff ff ff
-5.0000000000000000e+00 5.0000000000000000e+00
-5.0000000000000000e+00 5.0000000000000000e+00
-5.0000000000000000e+00 5.0000000000000000e+00
ITEM: ATOMS id type xs ys zs
1 1 0.285889 0.6474 0.845976
2 1 0.973527 0.107402 0.251192
3 1 0.0193402 0.377046 0.0405692
4 1 0.820709 0.45678 0.91615
5 1 0.901061 0.192846 0.251453
6 1 0.896092 0.283921 0.31662
7 1 0.229841 0.883025 0.763044
8 1 0.358649 0.253356 0.29889
9 1 0.774836 0.678463 0.495718
ITEM: TIMESTEP
31
ITEM: NUMBER OF ATOMS
9
ITEM: BOX BOUNDS ff ff ff
-5.0000000000000000e+00 5.0000000000000000e+00
-5.0000000000000000e+00 5.0000000000000000e+00
-5.0000000000000000e+00 5.0000000000000000e+00
ITEM: ATOMS id type xs ys zs
1 1 0.285772 0.647905 0.845796
2 1 0.973902 0.108082 0.252049
3 1 0.0193494 0.377043 0.0405762
4 1 0.820706 0.456784 0.916142
5 1 0.899733 0.193195 0.25053
6 1 0.897034 0.282907 0.316694
7 1 0.229962 0.882518 0.763222
8 1 0.358647 0.25336 0.298884
9 1 0.774838 0.678447 0.49572
ITEM: TIMESTEP
32
ITEM: NUMBER OF ATOMS
9
ITEM: BOX BOUNDS ff ff ff
-5.0000000000000000e+00 5.0000000000000000e+00
-5.0000000000000000e+00 5.0000000000000000e+00
-5.0000000000000000e+00 5.0000000000000000e+00
ITEM: ATOMS id type xs ys zs
1 1 0.285626 0.648534 0.845573
2 1 0.974204 0.109118 0.253113
3 1 0.0193609 0.377039 0.040585
4 1 0.820703 0.456788 0.916131
5 1 0.898248 0.193294 0.249276
6 1 0.898204 0.281788 0.316893
7 1 0.230113 0.881887 0.763443
8 1 0.358645 0.253365 0.298877
9 1 0.77484 0.678428 0.495722
ITEM: TIMESTEP
33
ITEM: NUMBER OF ATOMS
9
ITEM: BOX BOUNDS ff ff ff
-5.0000000000000000e+00 5.0000000000000000e+00
-5.0000000000000000e+00 5.0000000000000000e+00
-5.0000000000000000e+00 5.0000000000000000e+00
ITEM: ATOMS id type xs ys zs
1 1 0.285196 0.650387 0.844915
2 1 0.973924 0.113498 0.256214
3 1 0.0193946 0.377027 0.0406108
4 1 0.820693 0.456801 0.916101
5 1 0.895015 0.191488 0.245003
6 1 0.901677 0.279262 0.318092
7 1 0.230559 0.880027 0.764094
8 1 0.35864 0.25338 0.298855
9 1 0.774846 0.67837 0.495727
ITEM: TIMESTEP
34
ITEM: NUMBER OF ATOMS
9
ITEM: BOX BOUNDS ff ff ff
-5.0000000000000000e+00 5.0000000000000000e+00
-5.0000000000000000e+00 5.0000000000000000e+00
-5.0000000000000000e+00 5.0000000000000000e+00
ITEM: ATOMS id type xs ys zs
1 1 0.284711 0.652475 0.844173
2 1 0.973823 0.11826 0.259768
3 1 0.0194326 0.377014 0.0406398
4 1 0.820682 0.456815 0.916067
5 1 0.89119 0.190501 0.240826
6 1 0.905558 0.27554 0.318746
7 1 0.231061 0.877932 0.764829
8 1 0.358633 0.253398 0.298831
9 1 0.774853 0.678304 0.495733
ITEM: TIMESTEP
35
ITEM: NUMBER OF ATOMS
9
ITEM: BOX BOUNDS ff ff ff
-5.0000000000000000e+00 5.0000000000000000e+00
-5.0000000000000000e+00 5.0000000000000000e+00
-5.0000000000000000e+00 5.0000000000000000e+00
ITEM: ATOMS id type xs ys zs
1 1 0.283837 0.656236 0.842838
2 1 0.974275 0.126513 0.266491
3 1 0.0195005 0.37699 0.0406916
4 1 0.820662 0.456841 0.916007
5 1 0.883999 0.192345 0.2358
6 1 0.912218 0.26554 0.317105
7 1 0.231966 0.874158 0.766151
8 1 0.358621 0.253428 0.298787
9 1 0.774865 0.678188 0.495744
ITEM: TIMESTEP
36
ITEM: NUMBER OF ATOMS
9
ITEM: BOX BOUNDS ff ff ff
-5.0000000000000000e+00 5.0000000000000000e+00
-5.0000000000000000e+00 5.0000000000000000e+00
-5.0000000000000000e+00 5.0000000000000000e+00
ITEM: ATOMS id type xs ys zs
1 1 0.283095 0.65943 0.841704
2 1 0.97185 0.136211 0.271734
3 1 0.0195574 0.37697 0.0407351
4 1 0.820646 0.456863 0.915956
5 1 0.880493 0.192728 0.232961
6 1 0.918082 0.25554 0.314745
7 1 0.232734 0.870953 0.767274
8 1 0.358611 0.253454 0.29875
9 1 0.774875 0.67809 0.495753
ITEM: TIMESTEP
37
ITEM: NUMBER OF ATOMS
9
ITEM: BOX BOUNDS ff ff ff
-5.0000000000000000e+00 5.0000000000000000e+00
-5.0000000000000000e+00 5.0000000000000000e+00
-5.0000000000000000e+00 5.0000000000000000e+00
ITEM: ATOMS id type xs ys zs
1 1 0.282562 0.661725 0.840889
2 1 0.967782 0.146211 0.275734
3 1 0.0195973 0.376957 0.0407656
4 1 0.820634 0.456878 0.91592
5 1 0.878308 0.190516 0.229319
6 1 0.924288 0.247808 0.314419
7 1 0.233285 0.86865 0.768082
8 1 0.358604 0.253472 0.298724
9 1 0.774883 0.678022 0.495759
ITEM: TIMESTEP
38
ITEM: NUMBER OF ATOMS
9
ITEM: BOX BOUNDS ff ff ff
-5.0000000000000000e+00 5.0000000000000000e+00
-5.0000000000000000e+00 5.0000000000000000e+00
-5.0000000000000000e+00 5.0000000000000000e+00
ITEM: ATOMS id type xs ys zs
1 1 0.282456 0.66218 0.840728
2 1 0.967379 0.148553 0.277164
3 1 0.0196048 0.376954 0.0407713
4 1 0.820632 0.456881 0.915914
5 1 0.877228 0.190502 0.228341
6 1 0.925763 0.24549 0.313973
7 1 0.233395 0.868194 0.768242
8 1 0.358603 0.253476 0.29872
9 1 0.774884 0.678009 0.495761
ITEM: TIMESTEP
39
ITEM: NUMBER OF ATOMS
9
ITEM: BOX BOUNDS ff ff ff
-5.0000000000000000e+00 5.0000000000000000e+00
-5.0000000000000000e+00 5.0000000000000000e+00
-5.0000000000000000e+00 5.0000000000000000e+00
ITEM: ATOMS id type xs ys zs
1 1 0.282445 0.662226 0.840711
2 1 0.96761 0.148499 0.277331
3 1 0.0196053 0.376954 0.0407717
4 1 0.820632 0.456881 0.915913
5 1 0.876983 0.190641 0.228228
6 1 0.925776 0.245405 0.31392
7 1 0.233406 0.868148 0.768258
8 1 0.358603 0.253476 0.298719
9 1 0.774884 0.678008 0.495761
ITEM: TIMESTEP
40
ITEM: NUMBER OF ATOMS
9
ITEM: BOX BOUNDS ff ff ff
-5.0000000000000000e+00 5.0000000000000000e+00
-5.0000000000000000e+00 5.0000000000000000e+00
-5.0000000000000000e+00 5.0000000000000000e+00
ITEM: ATOMS id type xs ys zs
1 1 0.28244 0.662248 0.840704
2 1 0.967776 0.148358 0.277371
3 1 0.0196055 0.376954 0.0407718
4 1 0.820632 0.456881 0.915913
5 1 0.87689 0.190744 0.228223
6 1 0.925703 0.245444 0.313885
7 1 0.233411 0.868126 0.768266
8 1 0.358603 0.253476 0.298719
9 1 0.774884 0.678008 0.495761
ITEM: TIMESTEP
41
ITEM: NUMBER OF ATOMS
9
ITEM: BOX BOUNDS ff ff ff
-5.0000000000000000e+00 5.0000000000000000e+00
-5.0000000000000000e+00 5.0000000000000000e+00
-5.0000000000000000e+00 5.0000000000000000e+00
ITEM: ATOMS id type xs ys zs
1 1 0.282403 0.662403 0.840649
2 1 0.968466 0.147783 0.277551
3 1 0.0196066 0.376953 0.0407727
4 1 0.820632 0.456882 0.915912
5 1 0.876574 0.191268 0.22834
6 1 0.925328 0.245497 0.313588
7 1 0.233448 0.867971 0.76832
8 1 0.358603 0.253476 0.298718
9 1 0.774884 0.678007 0.495761
ITEM: TIMESTEP
42
ITEM: NUMBER OF ATOMS
9
ITEM: BOX BOUNDS ff ff ff
-5.0000000000000000e+00 5.0000000000000000e+00
-5.0000000000000000e+00 5.0000000000000000e+00
-5.0000000000000000e+00 5.0000000000000000e+00
ITEM: ATOMS id type xs ys zs
1 1 0.282388 0.66247 0.840625
2 1 0.968119 0.148102 0.277483
3 1 0.0196071 0.376953 0.040773
4 1 0.820632 0.456882 0.915912
5 1 0.876821 0.19113 0.228457
6 1 0.925428 0.245317 0.31354
7 1 0.233464 0.867904 0.768343
8 1 0.358603 0.253477 0.298718
9 1 0.774884 0.678006 0.495762
ITEM: TIMESTEP
43
ITEM: NUMBER OF ATOMS
9
ITEM: BOX BOUNDS ff ff ff
-5.0000000000000000e+00 5.0000000000000000e+00
-5.0000000000000000e+00 5.0000000000000000e+00
-5.0000000000000000e+00 5.0000000000000000e+00
ITEM: ATOMS id type xs ys zs
1 1 0.282346 0.662648 0.840562
2 1 0.967951 0.148212 0.277417
3 1 0.0196084 0.376953 0.040774
4 1 0.820631 0.456882 0.91591
5 1 0.876845 0.190919 0.228317
6 1 0.92557 0.245419 0.313746
7 1 0.233507 0.867725 0.768406
8 1 0.358602 0.253477 0.298717
9 1 0.774884 0.678005 0.495762
ITEM: TIMESTEP
44
ITEM: NUMBER OF ATOMS
9
ITEM: BOX BOUNDS ff ff ff
-5.0000000000000000e+00 5.0000000000000000e+00
-5.0000000000000000e+00 5.0000000000000000e+00
-5.0000000000000000e+00 5.0000000000000000e+00
ITEM: ATOMS id type xs ys zs
1 1 0.282309 0.662802 0.840508
2 1 0.968031 0.148133 0.277429
3 1 0.0196095 0.376952 0.0407748
4 1 0.820631 0.456883 0.915909
5 1 0.876773 0.19093 0.228262
6 1 0.925561 0.245487 0.313791
7 1 0.233544 0.867571 0.76846
8 1 0.358602 0.253478 0.298716
9 1 0.774884 0.678003 0.495762
ITEM: TIMESTEP
45
ITEM: NUMBER OF ATOMS
9
ITEM: BOX BOUNDS ff ff ff
-5.0000000000000000e+00 5.0000000000000000e+00
-5.0000000000000000e+00 5.0000000000000000e+00
-5.0000000000000000e+00 5.0000000000000000e+00
ITEM: ATOMS id type xs ys zs
1 1 0.282242 0.663085 0.840408
2 1 0.968178 0.148051 0.277498
3 1 0.0196114 0.376952 0.0407763
4 1 0.82063 0.456884 0.915908
5 1 0.876787 0.191171 0.22846
6 1 0.925397 0.24533 0.313524
7 1 0.233611 0.867288 0.76856
8 1 0.358602 0.253478 0.298715
9 1 0.774884 0.678001 0.495763
ITEM: TIMESTEP
46
ITEM: NUMBER OF ATOMS
9
ITEM: BOX BOUNDS ff ff ff
-5.0000000000000000e+00 5.0000000000000000e+00
-5.0000000000000000e+00 5.0000000000000000e+00
-5.0000000000000000e+00 5.0000000000000000e+00
ITEM: ATOMS id type xs ys zs
1 1 0.282147 0.66349 0.840265
2 1 0.968291 0.147966 0.277535
3 1 0.0196143 0.376951 0.0407785
4 1 0.82063 0.456885 0.915905
5 1 0.876745 0.191278 0.228505
6 1 0.925323 0.245311 0.313444
7 1 0.233708 0.866883 0.768702
8 1 0.358601 0.25348 0.298713
9 1 0.774884 0.677997 0.495764
ITEM: TIMESTEP
47
ITEM: NUMBER OF ATOMS
9
ITEM: BOX BOUNDS ff ff ff
-5.0000000000000000e+00 5.0000000000000000e+00
-5.0000000000000000e+00 5.0000000000000000e+00
-5.0000000000000000e+00 5.0000000000000000e+00
ITEM: ATOMS id type xs ys zs
1 1 0.281976 0.664213 0.84001
2 1 0.968161 0.14803 0.277468
3 1 0.0196192 0.376949 0.0407823
4 1 0.820628 0.456886 0.915901
5 1 0.876692 0.191019 0.228261
6 1 0.925502 0.24551 0.313758
7 1 0.233881 0.866158 0.768956
8 1 0.358601 0.253482 0.29871
9 1 0.774885 0.677991 0.495766
ITEM: TIMESTEP
48
ITEM: NUMBER OF ATOMS
9
ITEM: BOX BOUNDS ff ff ff
-5.0000000000000000e+00 5.0000000000000000e+00
-5.0000000000000000e+00 5.0000000000000000e+00
-5.0000000000000000e+00 5.0000000000000000e+00
ITEM: ATOMS id type xs ys zs
1 1 0.281901 0.664529 0.839898
2 1 0.968035 0.14814 0.277439
3 1 0.0196214 0.376948 0.0407839
4 1 0.820628 0.456887 0.915899
5 1 0.876774 0.190957 0.228288
6 1 0.925544 0.245466 0.313762
7 1 0.233957 0.865842 0.769068
8 1 0.3586 0.253483 0.298708
9 1 0.774885 0.677988 0.495767
ITEM: TIMESTEP
49
ITEM: NUMBER OF ATOMS
9
ITEM: BOX BOUNDS ff ff ff
-5.0000000000000000e+00 5.0000000000000000e+00
-5.0000000000000000e+00 5.0000000000000000e+00
-5.0000000000000000e+00 5.0000000000000000e+00
ITEM: ATOMS id type xs ys zs
1 1 0.281849 0.664749 0.839821
2 1 0.968149 0.148078 0.277494
3 1 0.0196227 0.376948 0.040785
4 1 0.820627 0.456888 0.915898
5 1 0.876812 0.191174 0.228488
6 1 0.92539 0.245312 0.313507
7 1 0.234009 0.865621 0.769145
8 1 0.3586 0.253483 0.298708
9 1 0.774885 0.677986 0.495767
ITEM: TIMESTEP
50
ITEM: NUMBER OF ATOMS
9
ITEM: BOX BOUNDS ff ff ff
-5.0000000000000000e+00 5.0000000000000000e+00
-5.0000000000000000e+00 5.0000000000000000e+00
-5.0000000000000000e+00 5.0000000000000000e+00
ITEM: ATOMS id type xs ys zs
1 1 0.281829 0.664835 0.83979
2 1 0.968185 0.14805 0.277505
3 1 0.0196233 0.376947 0.0407854
4 1 0.820627 0.456888 0.915897
5 1 0.876801 0.19121 0.228506
6 1 0.925365 0.245304 0.313478
7 1 0.23403 0.865535 0.769175
8 1 0.3586 0.253483 0.298707
9 1 0.774885 0.677986 0.495768
ITEM: TIMESTEP
51
ITEM: NUMBER OF ATOMS
9
ITEM: BOX BOUNDS ff ff ff
-5.0000000000000000e+00 5.0000000000000000e+00
-5.0000000000000000e+00 5.0000000000000000e+00
-5.0000000000000000e+00 5.0000000000000000e+00
ITEM: ATOMS id type xs ys zs
1 1 0.281817 0.664885 0.839773
2 1 0.968184 0.14804 0.277497
3 1 0.0196236 0.376947 0.0407856
4 1 0.820627 0.456888 0.915897
5 1 0.87677 0.191165 0.228445
6 1 0.925396 0.245359 0.313548
7 1 0.234042 0.865486 0.769193
8 1 0.3586 0.253484 0.298707
9 1 0.774885 0.677985 0.495768
ITEM: TIMESTEP
52
ITEM: NUMBER OF ATOMS
9
ITEM: BOX BOUNDS ff ff ff
-5.0000000000000000e+00 5.0000000000000000e+00
-5.0000000000000000e+00 5.0000000000000000e+00
-5.0000000000000000e+00 5.0000000000000000e+00
ITEM: ATOMS id type xs ys zs
1 1 0.281809 0.66492 0.83976
2 1 0.968165 0.14805 0.277488
3 1 0.0196238 0.376947 0.0407858
4 1 0.820627 0.456888 0.915897
5 1 0.876764 0.191131 0.228413
6 1 0.92542 0.245384 0.313589
7 1 0.23405 0.86545 0.769205
8 1 0.3586 0.253484 0.298707
9 1 0.774885 0.677985 0.495768
ITEM: TIMESTEP
53
ITEM: NUMBER OF ATOMS
9
ITEM: BOX BOUNDS ff ff ff
-5.0000000000000000e+00 5.0000000000000000e+00
-5.0000000000000000e+00 5.0000000000000000e+00
-5.0000000000000000e+00 5.0000000000000000e+00
ITEM: ATOMS id type xs ys zs
1 1 0.281808 0.664925 0.839759
2 1 0.968163 0.148052 0.277487
3 1 0.0196238 0.376947 0.0407858
4 1 0.820627 0.456888 0.915897
5 1 0.876764 0.191127 0.22841
6 1 0.925423 0.245386 0.313593
7 1 0.234051 0.865445 0.769207
8 1 0.3586 0.253484 0.298707
9 1 0.774885 0.677985 0.495768
ITEM: TIMESTEP
54
ITEM: NUMBER OF ATOMS
9
ITEM: BOX BOUNDS ff ff ff
-5.0000000000000000e+00 5.0000000000000000e+00
-5.0000000000000000e+00 5.0000000000000000e+00
-5.0000000000000000e+00 5.0000000000000000e+00
ITEM: ATOMS id type xs ys zs
1 1 0.281796 0.664976 0.839741
2 1 0.968139 0.148068 0.277478
3 1 0.0196241 0.376947 0.040786
4 1 0.820627 0.456888 0.915897
5 1 0.876765 0.191096 0.228388
6 1 0.925445 0.245401 0.313624
7 1 0.234064 0.865394 0.769225
8 1 0.3586 0.253484 0.298707
9 1 0.774885 0.677985 0.495768
ITEM: TIMESTEP
55
ITEM: NUMBER OF ATOMS
9
ITEM: BOX BOUNDS ff ff ff
-5.0000000000000000e+00 5.0000000000000000e+00
-5.0000000000000000e+00 5.0000000000000000e+00
-5.0000000000000000e+00 5.0000000000000000e+00
ITEM: ATOMS id type xs ys zs
1 1 0.281583 0.665876 0.839423
2 1 0.967878 0.148259 0.27739
3 1 0.0196295 0.376945 0.0407901
4 1 0.820626 0.45689 0.915892
5 1 0.876823 0.190811 0.228224
6 1 0.925642 0.2455 0.313879
7 1 0.234279 0.864493 0.769541
8 1 0.358599 0.253486 0.298703
9 1 0.774885 0.677978 0.49577
ITEM: TIMESTEP
56
ITEM: NUMBER OF ATOMS
9
ITEM: BOX BOUNDS ff ff ff
-5.0000000000000000e+00 5.0000000000000000e+00
-5.0000000000000000e+00 5.0000000000000000e+00
-5.0000000000000000e+00 5.0000000000000000e+00
ITEM: ATOMS id type xs ys zs
1 1 0.279221 0.675865 0.835899
2 1 0.967463 0.148594 0.277282
3 1 0.0196891 0.376925 0.0408356
4 1 0.82061 0.456913 0.91584
5 1 0.876796 0.190301 0.227832
6 1 0.926022 0.245735 0.314415
7 1 0.236667 0.854493 0.773054
8 1 0.358589 0.253511 0.298663
9 1 0.774888 0.677902 0.495792
ITEM: TIMESTEP
57
ITEM: NUMBER OF ATOMS
9
ITEM: BOX BOUNDS ff ff ff
-5.0000000000000000e+00 5.0000000000000000e+00
-5.0000000000000000e+00 5.0000000000000000e+00
-5.0000000000000000e+00 5.0000000000000000e+00
ITEM: ATOMS id type xs ys zs
1 1 0.276859 0.685853 0.832375
2 1 0.968086 0.148198 0.277545
3 1 0.0197474 0.376904 0.0408801
4 1 0.820594 0.456935 0.915789
5 1 0.876622 0.191059 0.228278
6 1 0.925511 0.245432 0.31374
7 1 0.239055 0.844493 0.776568
8 1 0.358579 0.253536 0.298624
9 1 0.774892 0.677829 0.495814
ITEM: TIMESTEP
58
ITEM: NUMBER OF ATOMS
9