ITEM: TIMESTEP
0
ITEM: NUMBER OF ATOMS
24
ITEM: BOX BOUNDS ff ff ff
-5.0000000000000000e+00 5.0000000000000000e+00
-5.0000000000000000e+00 5.0000000000000000e+00
-5.0000000000000000e+00 5.0000000000000000e+00
ITEM: ATOMS id type xs ys zs
1 1 0.280503 0.412211 0.0378638
2 1 0.376493 0.714989 0.817076
3 1 0.601589 0.898468 0.544199
4 1 0.353538 0.918507 0.343258
5 1 0.13857 0.948025 0.458386
6 1 0.0995986 0.954243 0.96834
7 1 0.898138 0.00533666 0.693189
8 1 0.431094 0.389193 0.174843
9 1 0.590595 0.136688 0.319906
10 1 0.660497 0.981411 0.574861
11 1 0.689329 0.560369 0.126175
12 1 0.627763 0.813416 0.090795
13 1 0.991739 0.162385 0.205845
14 1 0.64254 0.164415 0.3176
15 1 0.905193 0.586758 0.647147
16 1 0.604859 0.870635 0.758907
17 1 0.957266 0.768333 0.37029
18 1 0.456645 0.826888 0.505998
19 1 0.31671 0.945159 0.288563
20 1 0.874219 0.00553884 0.0912266
21 1 0.244874 0.596773 0.971822
22 1 0.404201 0.39829 0.0572848
23 1 0.785538 0.536304 0.667035
24 1 0.85433 0.721961 0.99822
ITEM: TIMESTEP
1
ITEM: NUMBER OF ATOMS
24
ITEM: BOX BOUNDS ff ff ff
-5.0000000000000000e+00 5.0000000000000000e+00
-5.0000000000000000e+00 5.0000000000000000e+00
-5.0000000000000000e+00 5.0000000000000000e+00
ITEM: ATOMS id type xs ys zs
1 1 0.280503 0.412211 0.0378638
2 1 0.376493 0.714989 0.817076
3 1 0.601588 0.898467 0.544199
4 1 0.35366 0.918419 0.343439
5 1 0.13857 0.948025 0.458386
6 1 0.0995986 0.954243 0.96834
7 1 0.898138 0.00533666 0.693189
8 1 0.431094 0.389193 0.174843
9 1 0.588095 0.135354 0.320017
10 1 0.660498 0.981411 0.574861
11 1 0.689329 0.560369 0.126175
12 1 0.627763 0.813416 0.090795
13 1 0.991739 0.162385 0.205845
14 1 0.64504 0.165749 0.317489
15 1 0.905193 0.586758 0.647147
16 1 0.604859 0.870635 0.758907
17 1 0.957266 0.768333 0.37029
18 1 0.456645 0.826888 0.505998
19 1 0.316588 0.945247 0.288382
20 1 0.874219 0.00553884 0.0912266
21 1 0.244874 0.596773 0.971822
22 1 0.4042 0.39829 0.0572849
23 1 0.785538 0.536304 0.667035
24 1 0.85433 0.721961 0.99822
ITEM: TIMESTEP
2
ITEM: NUMBER OF ATOMS
24
ITEM: BOX BOUNDS ff ff ff
-5.0000000000000000e+00 5.0000000000000000e+00
-5.0000000000000000e+00 5.0000000000000000e+00
-5.0000000000000000e+00 5.0000000000000000e+00
ITEM: ATOMS id type xs ys zs
1 1 0.280504 0.412211 0.037864
2 1 0.376493 0.714989 0.817076
3 1 0.601587 0.898465 0.544198
4 1 0.354407 0.917878 0.344548
5 1 0.13857 0.948025 0.458386
6 1 0.0995986 0.954243 0.96834
7 1 0.898138 0.00533666 0.693189
8 1 0.431093 0.389194 0.174842
9 1 0.583095 0.132685 0.320239
10 1 0.660499 0.981413 0.574862
11 1 0.689329 0.560369 0.126175
12 1 0.627763 0.813416 0.090795
13 1 0.991739 0.162385 0.205845
14 1 0.65004 0.168418 0.317267
15 1 0.905193 0.586758 0.647147
16 1 0.604859 0.870635 0.758907
17 1 0.957266 0.768333 0.37029
18 1 0.456645 0.826888 0.505999
19 1 0.315841 0.945788 0.287273
20 1 0.874219 0.00553886 0.0912266
21 1 0.244874 0.596773 0.971821
22 1 0.4042 0.39829 0.0572857
23 1 0.785539 0.536305 0.667035
24 1 0.85433 0.721961 0.99822
ITEM: TIMESTEP
3
ITEM: NUMBER OF ATOMS
24
ITEM: BOX BOUNDS ff ff ff
-5.0000000000000000e+00 5.0000000000000000e+00
-5.0000000000000000e+00 5.0000000000000000e+00
-5.0000000000000000e+00 5.0000000000000000e+00
ITEM: ATOMS id type xs ys zs
1 1 0.280512 0.41221 0.0378655
2 1 0.376493 0.714989 0.817076
3 1 0.601574 0.898449 0.544192
4 1 0.357774 0.915442 0.349548
5 1 0.13857 0.948025 0.458386
6 1 0.0995986 0.954243 0.96834
7 1 0.898138 0.00533666 0.693189
8 1 0.431091 0.389194 0.174835
9 1 0.578698 0.130338 0.320434
10 1 0.66051 0.981428 0.574868
11 1 0.689329 0.560369 0.126175
12 1 0.627763 0.813416 0.090795
13 1 0.991739 0.162385 0.205845
14 1 0.654437 0.170765 0.317072
15 1 0.905186 0.586755 0.647149
16 1 0.604859 0.870635 0.758907
17 1 0.957266 0.768333 0.37029
18 1 0.456647 0.826889 0.505999
19 1 0.312475 0.948224 0.282273
20 1 0.87422 0.00553904 0.0912267
21 1 0.244874 0.596774 0.971821
22 1 0.404194 0.39829 0.0572917
23 1 0.785545 0.536307 0.667034
24 1 0.85433 0.721961 0.99822
ITEM: TIMESTEP
4
ITEM: NUMBER OF ATOMS
24
ITEM: BOX BOUNDS ff ff ff
-5.0000000000000000e+00 5.0000000000000000e+00
-5.0000000000000000e+00 5.0000000000000000e+00
-5.0000000000000000e+00 5.0000000000000000e+00
ITEM: ATOMS id type xs ys zs
1 1 0.280562 0.412205 0.0378752
2 1 0.376492 0.714988 0.817077
3 1 0.601494 0.898346 0.544156
4 1 0.360032 0.913807 0.352904
5 1 0.138572 0.948025 0.458385
6 1 0.0995987 0.954243 0.96834
7 1 0.898138 0.00533667 0.693189
8 1 0.431079 0.389198 0.174787
9 1 0.573698 0.127669 0.320656
10 1 0.660578 0.981524 0.574905
11 1 0.689329 0.56037 0.126175
12 1 0.627763 0.813416 0.0907952
13 1 0.991738 0.162384 0.205844
14 1 0.659437 0.173434 0.31685
15 1 0.905145 0.586738 0.647155
16 1 0.604859 0.870636 0.758903
17 1 0.957266 0.768333 0.37029
18 1 0.456656 0.826897 0.505999
19 1 0.310217 0.949858 0.278921
20 1 0.87422 0.00554017 0.0912276
21 1 0.244875 0.596774 0.971821
22 1 0.404156 0.398292 0.0573299
23 1 0.785586 0.536325 0.667027
24 1 0.85433 0.721961 0.99822
ITEM: TIMESTEP
5
ITEM: NUMBER OF ATOMS
24
ITEM: BOX BOUNDS ff ff ff
-5.0000000000000000e+00 5.0000000000000000e+00
-5.0000000000000000e+00 5.0000000000000000e+00
-5.0000000000000000e+00 5.0000000000000000e+00
ITEM: ATOMS id type xs ys zs
1 1 0.281109 0.412142 0.0379804
2 1 0.376488 0.714985 0.817084
3 1 0.600675 0.897304 0.543783
4 1 0.365575 0.909789 0.361152
5 1 0.138588 0.948023 0.458375
6 1 0.0995992 0.954243 0.96834
7 1 0.898138 0.00533681 0.693189
8 1 0.430943 0.38924 0.174271
9 1 0.565901 0.123508 0.321001
10 1 0.661264 0.982489 0.575281
11 1 0.689325 0.560374 0.126175
12 1 0.627764 0.81341 0.0907969
13 1 0.991728 0.162372 0.205836
14 1 0.667235 0.177596 0.316503
15 1 0.904704 0.586553 0.647228
16 1 0.60486 0.870646 0.758862
17 1 0.957265 0.768332 0.370291
18 1 0.456763 0.826978 0.506004
19 1 0.304683 0.953858 0.270718
20 1 0.874228 0.0055524 0.0912368
21 1 0.244882 0.596781 0.971812
22 1 0.40375 0.398313 0.0577424
23 1 0.786027 0.536512 0.666954
24 1 0.854329 0.721961 0.998218
ITEM: TIMESTEP
6
ITEM: NUMBER OF ATOMS
24
ITEM: BOX BOUNDS ff ff ff
-5.0000000000000000e+00 5.0000000000000000e+00
-5.0000000000000000e+00 5.0000000000000000e+00
-5.0000000000000000e+00 5.0000000000000000e+00
ITEM: ATOMS id type xs ys zs
1 1 0.286192 0.41156 0.0389804
2 1 0.376451 0.714949 0.817146
3 1 0.596669 0.89275 0.542213
4 1 0.365453 0.909806 0.361115
5 1 0.138724 0.948009 0.458287
6 1 0.0996035 0.954237 0.968338
7 1 0.898137 0.00533809 0.693187
8 1 0.429693 0.389618 0.169628
9 1 0.565738 0.123433 0.321
10 1 0.663978 0.986305 0.576872
11 1 0.689289 0.560413 0.126172
12 1 0.627772 0.813355 0.090813
13 1 0.991637 0.162265 0.205761
14 1 0.667403 0.177687 0.316484
15 1 0.900528 0.584803 0.647916
16 1 0.604867 0.870735 0.758484
17 1 0.957255 0.768326 0.370301
18 1 0.457735 0.827826 0.505944
19 1 0.30497 0.953611 0.271274
20 1 0.874302 0.00566579 0.0913227
21 1 0.244951 0.596848 0.971729
22 1 0.399955 0.398517 0.0613974
23 1 0.790197 0.53828 0.66626
24 1 0.854325 0.721959 0.998207
ITEM: TIMESTEP
7
ITEM: NUMBER OF ATOMS
24
ITEM: BOX BOUNDS ff ff ff
-5.0000000000000000e+00 5.0000000000000000e+00
-5.0000000000000000e+00 5.0000000000000000e+00
-5.0000000000000000e+00 5.0000000000000000e+00
ITEM: ATOMS id type xs ys zs
1 1 0.289467 0.411178 0.0397689
2 1 0.37642 0.714919 0.817197
3 1 0.596525 0.893636 0.542603
4 1 0.36442 0.910501 0.359694
5 1 0.138834 0.947997 0.458215
6 1 0.0996071 0.954232 0.968336
7 1 0.898136 0.00533913 0.693186
8 1 0.429204 0.389739 0.168328
9 1 0.567197 0.124221 0.320928
10 1 0.662842 0.984731 0.576429
11 1 0.68926 0.560445 0.126169
12 1 0.627778 0.813311 0.090826
13 1 0.991562 0.162177 0.205699
14 1 0.665948 0.176911 0.316539
15 1 0.897055 0.583348 0.648489
16 1 0.60487 0.870803 0.758185
17 1 0.957247 0.768321 0.370309
18 1 0.458754 0.828605 0.505955
19 1 0.30614 0.952732 0.273119
20 1 0.874363 0.00575834 0.0913928
21 1 0.245007 0.596902 0.971663
22 1 0.397199 0.39878 0.0619195
23 1 0.793665 0.539751 0.665684
24 1 0.854322 0.721958 0.998198
ITEM: TIMESTEP
8
ITEM: NUMBER OF ATOMS
24
ITEM: BOX BOUNDS ff ff ff
-5.0000000000000000e+00 5.0000000000000000e+00
-5.0000000000000000e+00 5.0000000000000000e+00
-5.0000000000000000e+00 5.0000000000000000e+00
ITEM: ATOMS id type xs ys zs
1 1 0.287596 0.411376 0.0397373
2 1 0.376367 0.71487 0.817283
3 1 0.59723 0.896568 0.543773
4 1 0.364311 0.910498 0.359718
5 1 0.139023 0.947978 0.458093
6 1 0.0996131 0.954225 0.968333
7 1 0.898135 0.00534087 0.693183
8 1 0.429065 0.389721 0.168951
9 1 0.567019 0.124141 0.320925
10 1 0.659807 0.980556 0.575122
11 1 0.689212 0.5605 0.126164
12 1 0.627789 0.813237 0.0908479
13 1 0.991436 0.162029 0.205595
14 1 0.666134 0.17701 0.316515
15 1 0.895174 0.58257 0.648796
16 1 0.604875 0.870921 0.757675
17 1 0.957233 0.768313 0.370323
18 1 0.460665 0.829976 0.506067
19 1 0.306458 0.952448 0.273771
20 1 0.874465 0.0059148 0.0915113
21 1 0.245101 0.596993 0.97155
22 1 0.39926 0.398603 0.0613446
23 1 0.795538 0.540555 0.665372
24 1 0.854316 0.721956 0.998182
ITEM: TIMESTEP
9
ITEM: NUMBER OF ATOMS
24
ITEM: BOX BOUNDS ff ff ff
-5.0000000000000000e+00 5.0000000000000000e+00
-5.0000000000000000e+00 5.0000000000000000e+00
-5.0000000000000000e+00 5.0000000000000000e+00
ITEM: ATOMS id type xs ys zs
1 1 0.288205 0.411303 0.0399189
2 1 0.376358 0.71486 0.817299
3 1 0.596168 0.895486 0.543386
4 1 0.364435 0.910395 0.359934
5 1 0.139059 0.947974 0.45807
6 1 0.0996142 0.954223 0.968333
7 1 0.898135 0.00534119 0.693183
8 1 0.429002 0.389729 0.16894
9 1 0.567063 0.124168 0.320921
10 1 0.660435 0.981397 0.575484
11 1 0.689203 0.56051 0.126163
12 1 0.627791 0.813223 0.090852
13 1 0.991412 0.162001 0.205575
14 1 0.666091 0.176987 0.316514
15 1 0.896181 0.582997 0.648627
16 1 0.604876 0.870945 0.757574
17 1 0.957231 0.768311 0.370325
18 1 0.461022 0.830237 0.506096
19 1 0.306372 0.9525 0.273679
20 1 0.874485 0.00594417 0.0915335
21 1 0.245118 0.59701 0.971529
22 1 0.398725 0.398669 0.061177
23 1 0.794529 0.540132 0.66554
24 1 0.854315 0.721956 0.998179
ITEM: TIMESTEP
10
ITEM: NUMBER OF ATOMS
24
ITEM: BOX BOUNDS ff ff ff
-5.0000000000000000e+00 5.0000000000000000e+00
-5.0000000000000000e+00 5.0000000000000000e+00
-5.0000000000000000e+00 5.0000000000000000e+00
ITEM: ATOMS id type xs ys zs
1 1 0.288962 0.41121 0.0402043
2 1 0.376336 0.71484 0.817334
3 1 0.595132 0.894892 0.54319
4 1 0.364561 0.910277 0.360189
5 1 0.139134 0.947966 0.458021
6 1 0.0996165 0.95422 0.968331
7 1 0.898135 0.00534188 0.693182
8 1 0.428814 0.389759 0.16874
9 1 0.567103 0.124195 0.320914
10 1 0.660477 0.981451 0.575607
11 1 0.689183 0.560532 0.126161
12 1 0.627795 0.813194 0.0908606
13 1 0.991361 0.161942 0.205534
14 1 0.666054 0.176967 0.31651
15 1 0.896568 0.583166 0.64856
16 1 0.604879 0.870995 0.757362
17 1 0.957225 0.768308 0.37033
18 1 0.461849 0.83082 0.506174
19 1 0.306329 0.952509 0.273687
20 1 0.874526 0.00600687 0.091581
21 1 0.245156 0.597046 0.971484
22 1 0.398175 0.398733 0.0610991
23 1 0.794139 0.539973 0.665605
24 1 0.854313 0.721955 0.998173
ITEM: TIMESTEP
11
ITEM: NUMBER OF ATOMS
24
ITEM: BOX BOUNDS ff ff ff
-5.0000000000000000e+00 5.0000000000000000e+00
-5.0000000000000000e+00 5.0000000000000000e+00
-5.0000000000000000e+00 5.0000000000000000e+00
ITEM: ATOMS id type xs ys zs
1 1 0.289831 0.41103 0.0419812
2 1 0.376099 0.714617 0.817719
3 1 0.586789 0.8932 0.542748
4 1 0.364966 0.909698 0.361543
5 1 0.139975 0.947878 0.457475
6 1 0.0996427 0.954186 0.968318
7 1 0.89813 0.00534951 0.693171
8 1 0.426689 0.390102 0.166537
9 1 0.567068 0.124241 0.320866
10 1 0.656958 0.976755 0.575
11 1 0.688971 0.560773 0.12614
12 1 0.627842 0.812866 0.0909571
13 1 0.990797 0.161277 0.205066
14 1 0.666123 0.177005 0.316439
15 1 0.895947 0.582969 0.648634
16 1 0.6049 0.871557 0.754985
17 1 0.957165 0.768272 0.370388
18 1 0.471849 0.837668 0.50728
19 1 0.306855 0.951887 0.27528
20 1 0.874986 0.00670764 0.0921113
21 1 0.245575 0.59745 0.970983
22 1 0.399654 0.39858 0.0615984
23 1 0.794725 0.540282 0.665507
24 1 0.854288 0.721946 0.998104
ITEM: TIMESTEP
12
ITEM: NUMBER OF ATOMS
24
ITEM: BOX BOUNDS ff ff ff
-5.0000000000000000e+00 5.0000000000000000e+00
-5.0000000000000000e+00 5.0000000000000000e+00
-5.0000000000000000e+00 5.0000000000000000e+00
ITEM: ATOMS id type xs ys zs
1 1 0.29076 0.410849 0.0436594
2 1 0.375879 0.71441 0.818074
3 1 0.578528 0.891469 0.542158
4 1 0.365396 0.90914 0.362858
5 1 0.140749 0.947798 0.456973
6 1 0.0996668 0.954155 0.968306
7 1 0.898125 0.00535652 0.693161
8 1 0.425331 0.390226 0.166916
9 1 0.567069 0.124302 0.32082
10 1 0.653509 0.972216 0.574364
11 1 0.688776 0.560995 0.126121
12 1 0.627885 0.812564 0.0910457
13 1 0.990276 0.160664 0.204634
14 1 0.666152 0.177021 0.316376
15 1 0.895979 0.583042 0.648602
16 1 0.604918 0.872078 0.752782
17 1 0.957111 0.76824 0.370441
18 1 0.481849 0.844343 0.50859
19 1 0.30728 0.951357 0.276661
20 1 0.875411 0.00735402 0.0926003
21 1 0.24596 0.597822 0.970521
22 1 0.400285 0.398648 0.0596098
23 1 0.79466 0.540311 0.665518
24 1 0.854265 0.721938 0.998041
ITEM: TIMESTEP
13
ITEM: NUMBER OF ATOMS
24
ITEM: BOX BOUNDS ff ff ff
-5.0000000000000000e+00 5.0000000000000000e+00
-5.0000000000000000e+00 5.0000000000000000e+00
-5.0000000000000000e+00 5.0000000000000000e+00
ITEM: ATOMS id type xs ys zs
1 1 0.290317 0.410885 0.0438562
2 1 0.375847 0.71438 0.818123
3 1 0.579319 0.892474 0.54267
4 1 0.365551 0.909041 0.363135
5 1 0.140854 0.947788 0.456904
6 1 0.0996699 0.954151 0.968304
7 1 0.898124 0.00535741 0.69316
8 1 0.425387 0.390149 0.168232
9 1 0.567124 0.124338 0.320812
10 1 0.652293 0.970895 0.57402
11 1 0.688751 0.561024 0.126118
12 1 0.62789 0.812525 0.0910572
13 1 0.990203 0.160577 0.204573
14 1 0.666102 0.176994 0.316371
15 1 0.896788 0.583391 0.648464
16 1 0.604912 0.872162 0.752439
17 1 0.957104 0.768235 0.370447
18 1 0.482061 0.844648 0.508534
19 1 0.307231 0.951363 0.276692
20 1 0.875472 0.00744551 0.0926693
21 1 0.246013 0.597872 0.970458
22 1 0.400698 0.39869 0.0581057
23 1 0.793848 0.539976 0.665653
24 1 0.854262 0.721937 0.998033
ITEM: TIMESTEP
14
ITEM: NUMBER OF ATOMS
24
ITEM: BOX BOUNDS ff ff ff
-5.0000000000000000e+00 5.0000000000000000e+00
-5.0000000000000000e+00 5.0000000000000000e+00
-5.0000000000000000e+00 5.0000000000000000e+00
ITEM: ATOMS id type xs ys zs
1 1 0.290191 0.410889 0.0440242
2 1 0.375824 0.714358 0.818159
3 1 0.579166 0.892538 0.542746
4 1 0.365614 0.909005 0.363262
5 1 0.14093 0.94778 0.456855
6 1 0.0996721 0.954148 0.968303
7 1 0.898124 0.00535805 0.693159
8 1 0.42524 0.390158 0.168352
9 1 0.567131 0.124347 0.320808
10 1 0.651934 0.9705 0.573995
11 1 0.688733 0.561046 0.126116
12 1 0.627895 0.812496 0.0910655
13 1 0.99015 0.160514 0.204528
14 1 0.666098 0.176992 0.316365
15 1 0.89688 0.583435 0.648446
16 1 0.604908 0.872223 0.752188
17 1 0.957099 0.768232 0.370452
18 1 0.48242 0.844972 0.508566
19 1 0.307246 0.951331 0.276788
20 1 0.875516 0.00751172 0.0927193
21 1 0.246051 0.597908 0.970413
22 1 0.400989 0.398678 0.057824
23 1 0.793752 0.539941 0.665669
24 1 0.85426 0.721936 0.998027
ITEM: TIMESTEP
15
ITEM: NUMBER OF ATOMS
24
ITEM: BOX BOUNDS ff ff ff
-5.0000000000000000e+00 5.0000000000000000e+00
-5.0000000000000000e+00 5.0000000000000000e+00
-5.0000000000000000e+00 5.0000000000000000e+00
ITEM: ATOMS id type xs ys zs
1 1 0.290549 0.410831 0.0444462
2 1 0.375775 0.714313 0.818233
3 1 0.57776 0.891476 0.54243
4 1 0.365644 0.909005 0.363376
5 1 0.141083 0.947765 0.456755
6 1 0.0996766 0.954142 0.968301
7 1 0.898123 0.00535935 0.693157
8 1 0.424617 0.390289 0.167133
9 1 0.567086 0.124334 0.320802
10 1 0.652316 0.970892 0.574429
11 1 0.688697 0.561089 0.126112
12 1 0.627903 0.812438 0.0910823
13 1 0.990041 0.160385 0.204437
14 1 0.66615 0.177019 0.316352
15 1 0.896186 0.583153 0.648557
16 1 0.6049 0.872351 0.751668
17 1 0.957089 0.768226 0.370462
18 1 0.483131 0.845621 0.508628
19 1 0.307372 0.951196 0.277128
20 1 0.875606 0.00764697 0.0928212
21 1 0.246128 0.597983 0.970321
22 1 0.401291 0.398608 0.0586334
23 1 0.794441 0.540242 0.665554
24 1 0.854256 0.721935 0.998016
ITEM: TIMESTEP
16
ITEM: NUMBER OF ATOMS
24
ITEM: BOX BOUNDS ff ff ff
-5.0000000000000000e+00 5.0000000000000000e+00
-5.0000000000000000e+00 5.0000000000000000e+00
-5.0000000000000000e+00 5.0000000000000000e+00
ITEM: ATOMS id type xs ys zs
1 1 0.290777 0.410797 0.0446302
2 1 0.375757 0.714296 0.818261
3 1 0.578944 0.89224 0.542965
4 1 0.365707 0.908969 0.363494
5 1 0.141143 0.947759 0.456716
6 1 0.0996783 0.95414 0.9683
7 1 0.898123 0.00535985 0.693157
8 1 0.424531 0.390283 0.167426
9 1 0.567103 0.124347 0.320798
10 1 0.651887 0.970427 0.574351
11 1 0.688683 0.561106 0.126111
12 1 0.627906 0.812416 0.0910888
13 1 0.989999 0.160334 0.204401
14 1 0.666135 0.177011 0.316348
15 1 0.896415 0.583254 0.648517
16 1 0.604897 0.872402 0.751463
17 1 0.957085 0.768224 0.370466
18 1 0.482255 0.845312 0.508244
19 1 0.30737 0.95118 0.277185
20 1 0.875641 0.00769984 0.0928611
21 1 0.246158 0.598012 0.970285
22 1 0.401164 0.398649 0.0581614
23 1 0.79421 0.540148 0.665593
24 1 0.854255 0.721934 0.998011
ITEM: TIMESTEP
17
ITEM: NUMBER OF ATOMS
24
ITEM: BOX BOUNDS ff ff ff
-5.0000000000000000e+00 5.0000000000000000e+00
-5.0000000000000000e+00 5.0000000000000000e+00
-5.0000000000000000e+00 5.0000000000000000e+00
ITEM: ATOMS id type xs ys zs
1 1 0.290958 0.410761 0.0449641
2 1 0.375719 0.714261 0.818318
3 1 0.579032 0.892189 0.543164
4 1 0.365807 0.908915 0.363693
5 1 0.141263 0.947747 0.456638
6 1 0.0996818 0.954136 0.968298
7 1 0.898122 0.00536084 0.693155
8 1 0.424249 0.390308 0.167502
9 1 0.567117 0.124363 0.320791
10 1 0.65184 0.970365 0.574546
11 1 0.688655 0.56114 0.126107
12 1 0.627913 0.812371 0.0911017
13 1 0.989915 0.160234 0.20433
14 1 0.666126 0.177005 0.316339
15 1 0.896573 0.58333 0.648487
16 1 0.604892 0.872504 0.751052
17 1 0.957077 0.768219 0.370473
18 1 0.481968 0.845406 0.507996
19 1 0.307394 0.951129 0.277339
20 1 0.875712 0.00780524 0.0929405
21 1 0.246218 0.598069 0.970213
22 1 0.401292 0.398661 0.0577611
23 1 0.794047 0.540088 0.66562
24 1 0.854252 0.721933 0.998002
ITEM: TIMESTEP
18
ITEM: NUMBER OF ATOMS
24
ITEM: BOX BOUNDS ff ff ff
-5.0000000000000000e+00 5.0000000000000000e+00
-5.0000000000000000e+00 5.0000000000000000e+00
-5.0000000000000000e+00 5.0000000000000000e+00
ITEM: ATOMS id type xs ys zs
1 1 0.291002 0.41073 0.0454832
2 1 0.375657 0.714204 0.818411
3 1 0.577831 0.891204 0.542977
4 1 0.365928 0.908856 0.363956
5 1 0.141456 0.947727 0.456512
6 1 0.0996874 0.954128 0.968295
7 1 0.898121 0.00536245 0.693153
8 1 0.423671 0.390392 0.167073
9 1 0.567108 0.124371 0.320781
10 1 0.652198 0.970726 0.575051
11 1 0.68861 0.561194 0.126102
12 1 0.627924 0.812299 0.0911226
13 1 0.989778 0.16007 0.204214
14 1 0.666143 0.177014 0.316324
15 1 0.896429 0.583282 0.648505
16 1 0.604884 0.872672 0.750376
17 1 0.957065 0.768211 0.370485
18 1 0.48241 0.846001 0.507917
19 1 0.307477 0.951014 0.277654
20 1 0.875826 0.00797681 0.0930698
21 1 0.246315 0.598162 0.970097
22 1 0.401873 0.398611 0.0576866
23 1 0.794183 0.540159 0.665597
24 1 0.854247 0.721931 0.997988
ITEM: TIMESTEP
19
ITEM: NUMBER OF ATOMS
24
ITEM: BOX BOUNDS ff ff ff
-5.0000000000000000e+00 5.0000000000000000e+00
-5.0000000000000000e+00 5.0000000000000000e+00
-5.0000000000000000e+00 5.0000000000000000e+00
ITEM: ATOMS id type xs ys zs
1 1 0.291019 0.410725 0.0455372
2 1 0.375651 0.714198 0.818421
3 1 0.577788 0.891163 0.54299
4 1 0.36594 0.90885 0.363983
5 1 0.141476 0.947725 0.4565
6 1 0.0996879 0.954128 0.968295
7 1 0.898121 0.00536261 0.693153
8 1 0.423614 0.3904 0.167039
9 1 0.567107 0.124372 0.32078
10 1 0.652197 0.970724 0.575086
11 1 0.688606 0.561199 0.126101
12 1 0.627925 0.812292 0.0911247
13 1 0.989764 0.160054 0.204203
14 1 0.666145 0.177014 0.316323
15 1 0.896416 0.583279 0.648506
16 1 0.604883 0.872689 0.750308
17 1 0.957063 0.76821 0.370487
18 1 0.482413 0.84604 0.507894
19 1 0.307485 0.951002 0.277685
20 1 0.875838 0.00799409 0.0930828
21 1 0.246325 0.598172 0.970086
22 1 0.401918 0.398608 0.057668
23 1 0.794195 0.540165 0.665595
24 1 0.854246 0.72193 0.997987
ITEM: TIMESTEP
20
ITEM: NUMBER OF ATOMS
24
ITEM: BOX BOUNDS ff ff ff
-5.0000000000000000e+00 5.0000000000000000e+00
-5.0000000000000000e+00 5.0000000000000000e+00
-5.0000000000000000e+00 5.0000000000000000e+00
ITEM: ATOMS id type xs ys zs
1 1 0.291225 0.410692 0.0457643
2 1 0.375627 0.714176 0.818456
3 1 0.578555 0.891707 0.543406
4 1 0.365989 0.908827 0.364085
5 1 0.141549 0.947718 0.456452
6 1 0.0996901 0.954125 0.968294
7 1 0.898121 0.00536322 0.693152
8 1 0.423416 0.390421 0.167032
9 1 0.567107 0.124377 0.320776
10 1 0.651767 0.970254 0.575038
11 1 0.688589 0.56122 0.126099
12 1 0.627929 0.812265 0.0911326
13 1 0.989711 0.159991 0.204158
14 1 0.666148 0.177016 0.316317
15 1 0.896405 0.583279 0.648506
16 1 0.604881 0.872755 0.750046
17 1 0.957059 0.768207 0.370491
18 1 0.481921 0.845954 0.507621
19 1 0.307516 0.950959 0.277805
20 1 0.875882 0.00806 0.0931325
21 1 0.246362 0.598207 0.970041
22 1 0.401927 0.398621 0.0574539
23 1 0.794204 0.540173 0.665593
24 1 0.854244 0.72193 0.997981
ITEM: TIMESTEP
21
ITEM: NUMBER OF ATOMS
24
ITEM: BOX BOUNDS ff ff ff
-5.0000000000000000e+00 5.0000000000000000e+00
-5.0000000000000000e+00 5.0000000000000000e+00
-5.0000000000000000e+00 5.0000000000000000e+00
ITEM: ATOMS id type xs ys zs
1 1 0.296163 0.409745 0.0541318
2 1 0.374729 0.713351 0.819792
3 1 0.576941 0.890512 0.547137
4 1 0.367968 0.907853 0.368155
5 1 0.144324 0.947439 0.454648
6 1 0.0997693 0.954023 0.968254
7 1 0.898106 0.00538596 0.69312
8 1 0.415453 0.391374 0.164846
9 1 0.567137 0.124575 0.320631
10 1 0.647715 0.965538 0.578506
11 1 0.687953 0.561997 0.126022
12 1 0.62808 0.811237 0.0914289
13 1 0.987729 0.157617 0.202478
14 1 0.666235 0.177048 0.316114
15 1 0.896503 0.583514 0.648402
16 1 0.604801 0.875289 0.740046
17 1 0.956883 0.768097 0.370662
18 1 0.481672 0.851385 0.504025
19 1 0.308585 0.949399 0.282157
20 1 0.877546 0.0105442 0.0950034
21 1 0.247758 0.599545 0.968376
22 1 0.405596 0.398658 0.0514926
23 1 0.793999 0.540273 0.665625
24 1 0.854175 0.7219 0.997779
ITEM: TIMESTEP
22
ITEM: NUMBER OF ATOMS
24
ITEM: BOX BOUNDS ff ff ff
-5.0000000000000000e+00 5.0000000000000000e+00
-5.0000000000000000e+00 5.0000000000000000e+00
-5.0000000000000000e+00 5.0000000000000000e+00
ITEM: ATOMS id type xs ys zs
1 1 0.300458 0.40886 0.0625619
2 1 0.373836 0.712529 0.821119
3 1 0.574245 0.88804 0.550386
4 1 0.369949 0.90688 0.372212
5 1 0.147081 0.947163 0.452858
6 1 0.0998479 0.953921 0.968214
7 1 0.898091 0.0054085 0.693088
8 1 0.407388 0.392372 0.162051
9 1 0.567161 0.124769 0.320487
10 1 0.64496 0.962193 0.582554
11 1 0.687324 0.562767 0.125945
12 1 0.628231 0.810218 0.0917226
13 1 0.985757 0.155255 0.200807
14 1 0.666328 0.177082 0.315911
15 1 0.896514 0.583712 0.648314
16 1 0.604728 0.87783 0.730046
17 1 0.956708 0.767988 0.370832
18 1 0.481228 0.856709 0.500358
19 1 0.309648 0.947848 0.286483
20 1 0.879201 0.0130152 0.0968641
21 1 0.249145 0.600873 0.966723
22 1 0.410005 0.398588 0.046075
23 1 0.793882 0.540408 0.665642
24 1 0.854107 0.72187 0.997579
ITEM: TIMESTEP
23
ITEM: NUMBER OF ATOMS
24
ITEM: BOX BOUNDS ff ff ff
-5.0000000000000000e+00 5.0000000000000000e+00
-5.0000000000000000e+00 5.0000000000000000e+00
-5.0000000000000000e+00 5.0000000000000000e+00
ITEM: ATOMS id type xs ys zs
1 1 0.304789 0.407932 0.0716549
2 1 0.372991 0.711755 0.822359
3 1 0.568821 0.880913 0.552529
4 1 0.371934 0.905944 0.376103
5 1 0.149639 0.946906 0.451198
6 1 0.0999199 0.953828 0.968178
7 1 0.898078 0.00542908 0.693059
8 1 0.398743 0.393661 0.155058
9 1 0.567149 0.124927 0.320358
10 1 0.64767 0.96451 0.589149
11 1 0.686748 0.563479 0.125873
12 1 0.62837 0.80928 0.0919918
13 1 0.983903 0.153027 0.199228
14 1 0.666449 0.177131 0.315725
15 1 0.896066 0.583699 0.648311
16 1 0.604716 0.880443 0.720046
17 1 0.956549 0.767888 0.370987
18 1 0.478245 0.860872 0.495521
19 1 0.310664 0.94639 0.290551
20 1 0.880765 0.0153436 0.098616
21 1 0.250434 0.602106 0.965186
22 1 0.414899 0.398266 0.044175
23 1 0.794233 0.540725 0.665581
24 1 0.854045 0.721843 0.997397
ITEM: TIMESTEP
24
ITEM: NUMBER OF ATOMS
24
ITEM: BOX BOUNDS ff ff ff
-5.0000000000000000e+00 5.0000000000000000e+00
-5.0000000000000000e+00 5.0000000000000000e+00
-5.0000000000000000e+00 5.0000000000000000e+00
ITEM: ATOMS id type xs ys zs
1 1 0.308416 0.407276 0.0769757
2 1 0.372543 0.711345 0.82301
3 1 0.568293 0.878548 0.555071
4 1 0.373053 0.905439 0.378204
5 1 0.150978 0.946771 0.450331
6 1 0.099957 0.95378 0.968159
7 1 0.898071 0.0054397 0.693044
8 1 0.393419 0.394457 0.150704
9 1 0.567154 0.125012 0.320291
10 1 0.648008 0.964508 0.592363
11 1 0.686452 0.563849 0.125835
12 1 0.628442 0.808794 0.0921309
13 1 0.98292 0.151843 0.198389
14 1 0.666502 0.17715 0.31563
15 1 0.895959 0.583745 0.648288
16 1 0.60475 0.881964 0.714412
17 1 0.956467 0.767836 0.371066
18 1 0.475302 0.862793 0.492084
19 1 0.311232 0.945605 0.292733
20 1 0.881598 0.0165794 0.0995452
21 1 0.251109 0.602751 0.964382
22 1 0.416895 0.398148 0.0433105
23 1 0.794291 0.540836 0.66557
24 1 0.854013 0.721829 0.997303
ITEM: TIMESTEP
25
ITEM: NUMBER OF ATOMS
24
ITEM: BOX BOUNDS ff ff ff
-5.0000000000000000e+00 5.0000000000000000e+00
-5.0000000000000000e+00 5.0000000000000000e+00
-5.0000000000000000e+00 5.0000000000000000e+00
ITEM: ATOMS id type xs ys zs
1 1 0.311021 0.407001 0.0771862
2 1 0.372428 0.711244 0.82315
3 1 0.570894 0.882052 0.55736
4 1 0.373746 0.905232 0.379018
5 1 0.151235 0.946745 0.450171
6 1 0.099962 0.953773 0.968156
7 1 0.89807 0.00544104 0.693042
8 1 0.391824 0.394469 0.153383
9 1 0.567207 0.125048 0.320281
10 1 0.643846 0.959571 0.592454
11 1 0.686413 0.563909 0.125827
12 1 0.628454 0.80872 0.0921501
13 1 0.982669 0.151526 0.198161
14 1 0.66646 0.177123 0.31562
15 1 0.896616 0.584034 0.648171
16 1 0.604991 0.883104 0.71112
17 1 0.956456 0.767829 0.371077
18 1 0.475354 0.863563 0.491626
19 1 0.311549 0.945323 0.293461
20 1 0.881828 0.0169037 0.0997858
21 1 0.251242 0.602876 0.964225
22 1 0.415918 0.398418 0.0404344
23 1 0.793627 0.540567 0.665682
24 1 0.85401 0.721826 0.997291
ITEM: TIMESTEP
26
ITEM: NUMBER OF ATOMS
24
ITEM: BOX BOUNDS ff ff ff
-5.0000000000000000e+00 5.0000000000000000e+00
-5.0000000000000000e+00 5.0000000000000000e+00
-5.0000000000000000e+00 5.0000000000000000e+00
ITEM: ATOMS id type xs ys zs
1 1 0.311331 0.406968 0.0772398
2 1 0.372242 0.711081 0.823375
3 1 0.569624 0.883561 0.558332
4 1 0.374784 0.904971 0.380199
5 1 0.151647 0.946703 0.449914
6 1 0.0999699 0.953763 0.968152
7 1 0.898068 0.00544319 0.693039
8 1 0.391862 0.394509 0.152647
9 1 0.567172 0.125041 0.320271
10 1 0.640405 0.954995 0.594728
11 1 0.686352 0.564007 0.125813
12 1 0.628473 0.808601 0.0921808
13 1 0.982261 0.15101 0.197789
14 1 0.666514 0.177143 0.315599
15 1 0.896128 0.583847 0.648245
16 1 0.605443 0.885253 0.704923
17 1 0.95644 0.767818 0.371093
18 1 0.477519 0.865263 0.492314
19 1 0.312194 0.944785 0.294817
20 1 0.882203 0.0174313 0.100177
21 1 0.251456 0.603076 0.963972
22 1 0.415623 0.398419 0.0411376
23 1 0.794106 0.540787 0.6656
24 1 0.854005 0.721822 0.997273
ITEM: TIMESTEP
27
ITEM: NUMBER OF ATOMS
24
ITEM: BOX BOUNDS ff ff ff
-5.0000000000000000e+00 5.0000000000000000e+00
-5.0000000000000000e+00 5.0000000000000000e+00
-5.0000000000000000e+00 5.0000000000000000e+00
ITEM: ATOMS id type xs ys zs
1 1 0.310545 0.407056 0.077157
2 1 0.371962 0.710836 0.823712
3 1 0.564904 0.88275 0.558561
4 1 0.376335 0.904595 0.381952
5 1 0.152265 0.946641 0.44953
6 1 0.0999818 0.953748 0.968146
7 1 0.898066 0.0054464 0.693034
8 1 0.392495 0.394515 0.151454
9 1 0.567138 0.12504 0.320256
10 1 0.638129 0.950938 0.600142
11 1 0.686261 0.564153 0.125792
12 1 0.628502 0.808424 0.0922267
13 1 0.981646 0.150231 0.197229
14 1 0.666576 0.177163 0.315568
15 1 0.895568 0.58364 0.648327
16 1 0.606187 0.888759 0.694923
17 1 0.956415 0.767802 0.371118
18 1 0.48062 0.86779 0.493276
19 1 0.313177 0.94397 0.296869
20 1 0.882768 0.0182275 0.100768
21 1 0.251778 0.603377 0.963593
22 1 0.415856 0.398338 0.0424449
23 1 0.79465 0.541044 0.665507
24 1 0.853998 0.721817 0.997246
ITEM: TIMESTEP
28
ITEM: NUMBER OF ATOMS
24
ITEM: BOX BOUNDS ff ff ff
-5.0000000000000000e+00 5.0000000000000000e+00
-5.0000000000000000e+00 5.0000000000000000e+00
-5.0000000000000000e+00 5.0000000000000000e+00
ITEM: ATOMS id type xs ys zs
1 1 0.310186 0.407096 0.0771027
2 1 0.371903 0.710784 0.823784
3 1 0.564441 0.882305 0.559193
4 1 0.376664 0.904521 0.38232
5 1 0.152394 0.946627 0.449449
6 1 0.0999843 0.953745 0.968145
7 1 0.898066 0.00544707 0.693033
8 1 0.392675 0.394499 0.151435
9 1 0.567146 0.125048 0.320252
10 1 0.638098 0.950481 0.601639
11 1 0.686242 0.564183 0.125788
12 1 0.628508 0.808387 0.0922363
13 1 0.981514 0.150064 0.197108
14 1 0.666574 0.177159 0.315562
15 1 0.895655 0.583683 0.648309
16 1 0.60632 0.889547 0.692592
17 1 0.95641 0.767798 0.371123
18 1 0.480317 0.868143 0.492767
19 1 0.313381 0.9438 0.297297
20 1 0.88289 0.0183978 0.100894
21 1 0.251846 0.60344 0.963514
22 1 0.416051 0.398317 0.0425248
23 1 0.794559 0.541012 0.665522
24 1 0.853997 0.721815 0.997241
ITEM: TIMESTEP
29
ITEM: NUMBER OF ATOMS
24
ITEM: BOX BOUNDS ff ff ff
-5.0000000000000000e+00 5.0000000000000000e+00
-5.0000000000000000e+00 5.0000000000000000e+00
-5.0000000000000000e+00 5.0000000000000000e+00
ITEM: ATOMS id type xs ys zs
1 1 0.308891 0.407243 0.0768607
2 1 0.371755 0.710656 0.823958
3 1 0.568111 0.879679 0.56599
4 1 0.377558 0.904359 0.383274
5 1 0.152702 0.946596 0.44926
6 1 0.09999 0.953737 0.968142
7 1 0.898065 0.00544859 0.693031
8 1 0.392983 0.394373 0.153115
9 1 0.567281 0.125127 0.320237
10 1 0.641547 0.953191 0.605628
11 1 0.686198 0.564254 0.125778
12 1 0.628522 0.808301 0.0922584
13 1 0.981175 0.149632 0.196797
14 1 0.666453 0.17709 0.315555
15 1 0.897348 0.584411 0.648015
16 1 0.605579 0.890436 0.686816
17 1 0.956398 0.76779 0.371135
18 1 0.472273 0.867701 0.486019
19 1 0.313848 0.943421 0.298283
20 1 0.883204 0.018838 0.10122
21 1 0.252009 0.603592 0.963321
22 1 0.417075 0.398302 0.041101
23 1 0.792859 0.540307 0.665811
24 1 0.853994 0.721812 0.997228
ITEM: TIMESTEP
30
ITEM: NUMBER OF ATOMS
24