ITEM: TIMESTEP
0
ITEM: NUMBER OF ATOMS
12
ITEM: BOX BOUNDS ff ff ff
-5.0000000000000000e+00 5.0000000000000000e+00
-5.0000000000000000e+00 5.0000000000000000e+00
-5.0000000000000000e+00 5.0000000000000000e+00
ITEM: ATOMS id type xs ys zs
1 1 0.577819 0.397473 0.327235
2 1 0.834589 0.940207 0.0637973
3 1 0.241186 0.614692 0.122567
4 1 0.981095 0.256953 0.603815
5 1 0.322412 0.782635 0.748683
6 1 0.111735 0.932702 0.920733
7 1 0.764769 0.468754 0.349914
8 1 0.0114237 0.998432 0.6401
9 1 0.154208 0.781579 0.99447
10 1 0.0608789 0.192039 0.592663
11 1 0.893492 0.927059 0.0734964
12 1 0.254831 0.950234 0.589343
ITEM: TIMESTEP
1
ITEM: NUMBER OF ATOMS
12
ITEM: BOX BOUNDS ff ff ff
-5.0000000000000000e+00 5.0000000000000000e+00
-5.0000000000000000e+00 5.0000000000000000e+00
-5.0000000000000000e+00 5.0000000000000000e+00
ITEM: ATOMS id type xs ys zs
1 1 0.577819 0.397473 0.327235
2 1 0.829589 0.941323 0.062974
3 1 0.241186 0.614692 0.122567
4 1 0.981095 0.256953 0.603815
5 1 0.322412 0.782635 0.748683
6 1 0.111735 0.932702 0.920733
7 1 0.764769 0.468754 0.349914
8 1 0.0114237 0.998432 0.6401
9 1 0.154208 0.781579 0.99447
10 1 0.0608789 0.192039 0.592663
11 1 0.898492 0.925942 0.0743198
12 1 0.254831 0.950234 0.589343
ITEM: TIMESTEP
2
ITEM: NUMBER OF ATOMS
12
ITEM: BOX BOUNDS ff ff ff
-5.0000000000000000e+00 5.0000000000000000e+00
-5.0000000000000000e+00 5.0000000000000000e+00
-5.0000000000000000e+00 5.0000000000000000e+00
ITEM: ATOMS id type xs ys zs
1 1 0.577819 0.397473 0.327235
2 1 0.824589 0.94244 0.0621507
3 1 0.241186 0.614692 0.122567
4 1 0.981095 0.256953 0.603815
5 1 0.322412 0.782635 0.748683
6 1 0.111735 0.932701 0.920734
7 1 0.764769 0.468754 0.349914
8 1 0.0114238 0.998432 0.6401
9 1 0.154208 0.781579 0.99447
10 1 0.0608789 0.192039 0.592663
11 1 0.903492 0.924826 0.0751431
12 1 0.254831 0.950234 0.589343
ITEM: TIMESTEP
3
ITEM: NUMBER OF ATOMS
12
ITEM: BOX BOUNDS ff ff ff
-5.0000000000000000e+00 5.0000000000000000e+00
-5.0000000000000000e+00 5.0000000000000000e+00
-5.0000000000000000e+00 5.0000000000000000e+00
ITEM: ATOMS id type xs ys zs
1 1 0.57782 0.397474 0.327235
2 1 0.819589 0.943556 0.0613274
3 1 0.241186 0.614692 0.122567
4 1 0.981095 0.256953 0.603815
5 1 0.322412 0.782636 0.748683
6 1 0.111736 0.932697 0.920735
7 1 0.764767 0.468753 0.349914
8 1 0.0114242 0.998431 0.6401
9 1 0.154207 0.781583 0.994468
10 1 0.0608789 0.192039 0.592663
11 1 0.908492 0.92371 0.0759664
12 1 0.254831 0.950234 0.589344
ITEM: TIMESTEP
4
ITEM: NUMBER OF ATOMS
12
ITEM: BOX BOUNDS ff ff ff
-5.0000000000000000e+00 5.0000000000000000e+00
-5.0000000000000000e+00 5.0000000000000000e+00
-5.0000000000000000e+00 5.0000000000000000e+00
ITEM: ATOMS id type xs ys zs
1 1 0.577829 0.397477 0.327236
2 1 0.814589 0.944672 0.0605041
3 1 0.241186 0.614692 0.122567
4 1 0.981095 0.256953 0.603815
5 1 0.32241 0.782638 0.748681
6 1 0.111743 0.932675 0.920745
7 1 0.764758 0.46875 0.349913
8 1 0.0114263 0.998431 0.6401
9 1 0.154201 0.781606 0.994456
10 1 0.0608789 0.192039 0.592663
11 1 0.913492 0.922594 0.0767897
12 1 0.25483 0.950232 0.589346
ITEM: TIMESTEP
5
ITEM: NUMBER OF ATOMS
12
ITEM: BOX BOUNDS ff ff ff
-5.0000000000000000e+00 5.0000000000000000e+00
-5.0000000000000000e+00 5.0000000000000000e+00
-5.0000000000000000e+00 5.0000000000000000e+00
ITEM: ATOMS id type xs ys zs
1 1 0.577876 0.397495 0.327242
2 1 0.810577 0.945567 0.0598434
3 1 0.241186 0.614692 0.122567
4 1 0.981094 0.256953 0.603815
5 1 0.322402 0.782649 0.748676
6 1 0.111778 0.932554 0.920799
7 1 0.764711 0.468732 0.349908
8 1 0.0114377 0.998428 0.640101
9 1 0.154169 0.781727 0.994394
10 1 0.060879 0.192039 0.592663
11 1 0.917505 0.921698 0.0774504
12 1 0.254824 0.950224 0.589359
ITEM: TIMESTEP
6
ITEM: NUMBER OF ATOMS
12
ITEM: BOX BOUNDS ff ff ff
-5.0000000000000000e+00 5.0000000000000000e+00
-5.0000000000000000e+00 5.0000000000000000e+00
-5.0000000000000000e+00 5.0000000000000000e+00
ITEM: ATOMS id type xs ys zs
1 1 0.578034 0.397556 0.327261
2 1 0.809797 0.945741 0.0597152
3 1 0.241187 0.614691 0.122568
4 1 0.981093 0.256954 0.603814
5 1 0.322375 0.782689 0.748656
6 1 0.111896 0.932144 0.920982
7 1 0.764554 0.468671 0.349889
8 1 0.0114759 0.998418 0.640103
9 1 0.154061 0.782135 0.994185
10 1 0.0608791 0.192039 0.592663
11 1 0.918284 0.921524 0.0775789
12 1 0.254803 0.950196 0.589402
ITEM: TIMESTEP
7
ITEM: NUMBER OF ATOMS
12
ITEM: BOX BOUNDS ff ff ff
-5.0000000000000000e+00 5.0000000000000000e+00
-5.0000000000000000e+00 5.0000000000000000e+00
-5.0000000000000000e+00 5.0000000000000000e+00
ITEM: ATOMS id type xs ys zs
1 1 0.581823 0.399012 0.32772
2 1 0.810046 0.945681 0.0597591
3 1 0.241201 0.614686 0.12258
4 1 0.981067 0.256976 0.603786
5 1 0.321728 0.783621 0.748198
6 1 0.114784 0.922144 0.925459
7 1 0.760775 0.46721 0.349449
8 1 0.0123838 0.998181 0.640167
9 1 0.151412 0.792104 0.989077
10 1 0.0608816 0.192042 0.592662
11 1 0.918032 0.921576 0.0775402
12 1 0.254305 0.949524 0.590419
ITEM: TIMESTEP
8
ITEM: NUMBER OF ATOMS
12
ITEM: BOX BOUNDS ff ff ff
-5.0000000000000000e+00 5.0000000000000000e+00
-5.0000000000000000e+00 5.0000000000000000e+00
-5.0000000000000000e+00 5.0000000000000000e+00
ITEM: ATOMS id type xs ys zs
1 1 0.584901 0.400193 0.328092
2 1 0.809777 0.945737 0.0597172
3 1 0.241212 0.614682 0.122589
4 1 0.981048 0.256993 0.603766
5 1 0.321231 0.784337 0.747848
6 1 0.11766 0.912144 0.930042
7 1 0.757706 0.466026 0.34909
8 1 0.0130736 0.998 0.64021
9 1 0.148724 0.802079 0.984018
10 1 0.0608836 0.192045 0.592662
11 1 0.918298 0.921513 0.0775861
12 1 0.253928 0.949009 0.591197
ITEM: TIMESTEP
9
ITEM: NUMBER OF ATOMS
12
ITEM: BOX BOUNDS ff ff ff
-5.0000000000000000e+00 5.0000000000000000e+00
-5.0000000000000000e+00 5.0000000000000000e+00
-5.0000000000000000e+00 5.0000000000000000e+00
ITEM: ATOMS id type xs ys zs
1 1 0.586177 0.400683 0.328247
2 1 0.809826 0.945725 0.0597262
3 1 0.241216 0.61468 0.122593
4 1 0.98104 0.256999 0.603758
5 1 0.321033 0.78462 0.74771
6 1 0.119093 0.907144 0.93237
7 1 0.756432 0.465534 0.348941
8 1 0.0133448 0.997929 0.640225
9 1 0.147366 0.807068 0.981503
10 1 0.0608843 0.192046 0.592661
11 1 0.918247 0.921523 0.0775787
12 1 0.25378 0.948805 0.591505
ITEM: TIMESTEP
10
ITEM: NUMBER OF ATOMS
12
ITEM: BOX BOUNDS ff ff ff
-5.0000000000000000e+00 5.0000000000000000e+00
-5.0000000000000000e+00 5.0000000000000000e+00
-5.0000000000000000e+00 5.0000000000000000e+00
ITEM: ATOMS id type xs ys zs
1 1 0.586722 0.400891 0.328313
2 1 0.810086 0.945667 0.0597692
3 1 0.241217 0.61468 0.122594
4 1 0.981038 0.257001 0.603756
5 1 0.320974 0.784704 0.747672
6 1 0.119647 0.905218 0.933286
7 1 0.755888 0.465326 0.348876
8 1 0.013419 0.997909 0.640224
9 1 0.146837 0.80899 0.980537
10 1 0.0608845 0.192046 0.592661
11 1 0.917987 0.921581 0.077536
12 1 0.25374 0.948746 0.591592
ITEM: TIMESTEP
11
ITEM: NUMBER OF ATOMS
12
ITEM: BOX BOUNDS ff ff ff
-5.0000000000000000e+00 5.0000000000000000e+00
-5.0000000000000000e+00 5.0000000000000000e+00
-5.0000000000000000e+00 5.0000000000000000e+00
ITEM: ATOMS id type xs ys zs
1 1 0.586922 0.400968 0.328337
2 1 0.809989 0.945688 0.0597533
3 1 0.241217 0.61468 0.122594
4 1 0.981038 0.257001 0.603755
5 1 0.320953 0.784733 0.747659
6 1 0.11948 0.905822 0.932979
7 1 0.755689 0.465249 0.348852
8 1 0.0134451 0.997902 0.640224
9 1 0.147013 0.808384 0.980827
10 1 0.0608846 0.192046 0.592661
11 1 0.918084 0.921559 0.077552
12 1 0.253726 0.948725 0.591623
ITEM: TIMESTEP
12
ITEM: NUMBER OF ATOMS
12
ITEM: BOX BOUNDS ff ff ff
-5.0000000000000000e+00 5.0000000000000000e+00
-5.0000000000000000e+00 5.0000000000000000e+00
-5.0000000000000000e+00 5.0000000000000000e+00
ITEM: ATOMS id type xs ys zs
1 1 0.589158 0.401823 0.328609
2 1 0.809717 0.945747 0.0597095
3 1 0.241221 0.614678 0.122598
4 1 0.98103 0.257007 0.603747
5 1 0.320721 0.785058 0.747509
6 1 0.119267 0.906718 0.932427
7 1 0.753455 0.464393 0.348586
8 1 0.0137329 0.997826 0.640221
9 1 0.147324 0.80747 0.981188
10 1 0.0608853 0.192047 0.592661
11 1 0.918354 0.921498 0.0775974
12 1 0.253572 0.948492 0.591964
ITEM: TIMESTEP
13
ITEM: NUMBER OF ATOMS
12
ITEM: BOX BOUNDS ff ff ff
-5.0000000000000000e+00 5.0000000000000000e+00
-5.0000000000000000e+00 5.0000000000000000e+00
-5.0000000000000000e+00 5.0000000000000000e+00
ITEM: ATOMS id type xs ys zs
1 1 0.599158 0.405644 0.329824
2 1 0.809675 0.945751 0.0597066
3 1 0.241239 0.614672 0.122613
4 1 0.980997 0.257034 0.603713
5 1 0.319709 0.786481 0.746854
6 1 0.119313 0.907165 0.931717
7 1 0.74347 0.460567 0.347394
8 1 0.0149912 0.99749 0.640207
9 1 0.147707 0.806941 0.981065
10 1 0.0608885 0.192052 0.59266
11 1 0.918391 0.921484 0.077607
12 1 0.252901 0.947477 0.593456
ITEM: TIMESTEP
14
ITEM: NUMBER OF ATOMS
12
ITEM: BOX BOUNDS ff ff ff
-5.0000000000000000e+00 5.0000000000000000e+00
-5.0000000000000000e+00 5.0000000000000000e+00
-5.0000000000000000e+00 5.0000000000000000e+00
ITEM: ATOMS id type xs ys zs
1 1 0.609158 0.409463 0.33104
2 1 0.810487 0.945564 0.0598435
3 1 0.241254 0.614667 0.122626
4 1 0.980969 0.257057 0.603684
5 1 0.318845 0.787699 0.746288
6 1 0.120274 0.904294 0.932714
7 1 0.733482 0.456744 0.346197
8 1 0.0160643 0.997204 0.640195
9 1 0.147111 0.809744 0.97936
10 1 0.0608912 0.192055 0.592659
11 1 0.917575 0.921661 0.0774757
12 1 0.252331 0.946606 0.594734
ITEM: TIMESTEP
15
ITEM: NUMBER OF ATOMS
12
ITEM: BOX BOUNDS ff ff ff
-5.0000000000000000e+00 5.0000000000000000e+00
-5.0000000000000000e+00 5.0000000000000000e+00
-5.0000000000000000e+00 5.0000000000000000e+00
ITEM: ATOMS id type xs ys zs
1 1 0.615199 0.411769 0.331775
2 1 0.810729 0.945507 0.0598853
3 1 0.241262 0.614664 0.122634
4 1 0.980953 0.257069 0.603668
5 1 0.31836 0.788384 0.745969
6 1 0.120602 0.903425 0.932907
7 1 0.727448 0.454435 0.345474
8 1 0.0166662 0.997044 0.640189
9 1 0.146986 0.810574 0.97877
10 1 0.0608927 0.192057 0.592658
11 1 0.917329 0.921713 0.0774371
12 1 0.252012 0.946116 0.595452
ITEM: TIMESTEP
16
ITEM: NUMBER OF ATOMS
12
ITEM: BOX BOUNDS ff ff ff
-5.0000000000000000e+00 5.0000000000000000e+00
-5.0000000000000000e+00 5.0000000000000000e+00
-5.0000000000000000e+00 5.0000000000000000e+00
ITEM: ATOMS id type xs ys zs
1 1 0.620199 0.413677 0.332383
2 1 0.810702 0.945511 0.0598823
3 1 0.241269 0.614662 0.122639
4 1 0.980941 0.257079 0.603656
5 1 0.317985 0.788913 0.745721
6 1 0.120594 0.903676 0.932601
7 1 0.722453 0.452525 0.344874
8 1 0.0171312 0.996919 0.640184
9 1 0.147152 0.810293 0.97877
10 1 0.0608939 0.192059 0.592658
11 1 0.917355 0.921705 0.0774425
12 1 0.251766 0.945737 0.596007
ITEM: TIMESTEP
17
ITEM: NUMBER OF ATOMS
12
ITEM: BOX BOUNDS ff ff ff
-5.0000000000000000e+00 5.0000000000000000e+00
-5.0000000000000000e+00 5.0000000000000000e+00
-5.0000000000000000e+00 5.0000000000000000e+00
ITEM: ATOMS id type xs ys zs
1 1 0.620197 0.413677 0.332383
2 1 0.810225 0.945617 0.0598039
3 1 0.24127 0.614662 0.12264
4 1 0.980939 0.25708 0.603654
5 1 0.317916 0.789011 0.745673
6 1 0.120096 0.905467 0.931684
7 1 0.722457 0.452525 0.344876
8 1 0.0172155 0.996897 0.640183
9 1 0.147678 0.808497 0.979633
10 1 0.0608941 0.192059 0.592658
11 1 0.917832 0.921598 0.0775213
12 1 0.251722 0.945666 0.59611
ITEM: TIMESTEP
18
ITEM: NUMBER OF ATOMS
12
ITEM: BOX BOUNDS ff ff ff
-5.0000000000000000e+00 5.0000000000000000e+00
-5.0000000000000000e+00 5.0000000000000000e+00
-5.0000000000000000e+00 5.0000000000000000e+00
ITEM: ATOMS id type xs ys zs
1 1 0.619254 0.413319 0.332267
2 1 0.809998 0.945668 0.0597667
3 1 0.24127 0.614662 0.122641
4 1 0.980938 0.257081 0.603653
5 1 0.317889 0.789052 0.745651
6 1 0.120039 0.905681 0.931566
7 1 0.7234 0.452883 0.344991
8 1 0.0172482 0.996888 0.640182
9 1 0.147745 0.808281 0.979731
10 1 0.0608942 0.192059 0.592658
11 1 0.918058 0.921548 0.0775587
12 1 0.251707 0.945636 0.596152
ITEM: TIMESTEP
19
ITEM: NUMBER OF ATOMS
12
ITEM: BOX BOUNDS ff ff ff
-5.0000000000000000e+00 5.0000000000000000e+00
-5.0000000000000000e+00 5.0000000000000000e+00
-5.0000000000000000e+00 5.0000000000000000e+00
ITEM: ATOMS id type xs ys zs
1 1 0.619208 0.413302 0.332262
2 1 0.809954 0.945677 0.0597595
3 1 0.24127 0.614662 0.122641
4 1 0.980937 0.257081 0.603652
5 1 0.317858 0.789097 0.745626
6 1 0.120032 0.905721 0.931533
7 1 0.723446 0.4529 0.344997
8 1 0.0172847 0.996878 0.640182
9 1 0.147763 0.808239 0.979742
10 1 0.0608942 0.19206 0.592658
11 1 0.918103 0.921538 0.0775661
12 1 0.25169 0.945602 0.5962
ITEM: TIMESTEP
20
ITEM: NUMBER OF ATOMS
12
ITEM: BOX BOUNDS ff ff ff
-5.0000000000000000e+00 5.0000000000000000e+00
-5.0000000000000000e+00 5.0000000000000000e+00
-5.0000000000000000e+00 5.0000000000000000e+00
ITEM: ATOMS id type xs ys zs
1 1 0.618832 0.413169 0.33222
2 1 0.809578 0.945752 0.0597035
3 1 0.241294 0.614656 0.122662
4 1 0.980888 0.257114 0.603607
5 1 0.315933 0.791967 0.74405
6 1 0.120266 0.905958 0.930578
7 1 0.723846 0.453029 0.345071
8 1 0.0195872 0.996246 0.640146
9 1 0.148244 0.807878 0.979295
10 1 0.0608987 0.192066 0.592657
11 1 0.91847 0.921448 0.0776316
12 1 0.250603 0.943476 0.599195
ITEM: TIMESTEP
21
ITEM: NUMBER OF ATOMS
12
ITEM: BOX BOUNDS ff ff ff
-5.0000000000000000e+00 5.0000000000000000e+00
-5.0000000000000000e+00 5.0000000000000000e+00
-5.0000000000000000e+00 5.0000000000000000e+00
ITEM: ATOMS id type xs ys zs
1 1 0.618559 0.413099 0.3322
2 1 0.809279 0.945787 0.059674
3 1 0.241374 0.614636 0.122734
4 1 0.980722 0.257224 0.603455
5 1 0.309512 0.801547 0.738781
6 1 0.121297 0.905857 0.927839
7 1 0.724199 0.453086 0.345196
8 1 0.0272614 0.994138 0.640029
9 1 0.149592 0.807561 0.977369
10 1 0.0609136 0.192089 0.592652
11 1 0.918739 0.92136 0.0776929
12 1 0.24699 0.936374 0.609195
ITEM: TIMESTEP
22
ITEM: NUMBER OF ATOMS
12
ITEM: BOX BOUNDS ff ff ff
-5.0000000000000000e+00 5.0000000000000000e+00
-5.0000000000000000e+00 5.0000000000000000e+00
-5.0000000000000000e+00 5.0000000000000000e+00
ITEM: ATOMS id type xs ys zs
1 1 0.619637 0.41354 0.332346
2 1 0.81029 0.945531 0.0598599
3 1 0.241453 0.614617 0.122804
4 1 0.98056 0.257332 0.603306
5 1 0.30311 0.811135 0.733445
6 1 0.122664 0.904542 0.925748
7 1 0.7232 0.452633 0.345153
8 1 0.0348586 0.992046 0.639914
9 1 0.150569 0.808467 0.97486
10 1 0.0609282 0.19211 0.592647
11 1 0.9177 0.921565 0.0775385
12 1 0.24347 0.92924 0.619195
ITEM: TIMESTEP
23
ITEM: NUMBER OF ATOMS
12
ITEM: BOX BOUNDS ff ff ff
-5.0000000000000000e+00 5.0000000000000000e+00
-5.0000000000000000e+00 5.0000000000000000e+00
-5.0000000000000000e+00 5.0000000000000000e+00
ITEM: ATOMS id type xs ys zs
1 1 0.619942 0.413688 0.332397
2 1 0.810533 0.945447 0.0599185
3 1 0.241529 0.614598 0.122871
4 1 0.980404 0.257436 0.603163
5 1 0.296741 0.820746 0.727948
6 1 0.123794 0.903939 0.923383
7 1 0.72297 0.452473 0.345203
8 1 0.0422482 0.990002 0.639806
9 1 0.151702 0.808677 0.97278
10 1 0.0609423 0.192131 0.592642
11 1 0.91743 0.9216 0.07751
12 1 0.240205 0.92202 0.629195
ITEM: TIMESTEP
24
ITEM: NUMBER OF ATOMS
12
ITEM: BOX BOUNDS ff ff ff
-5.0000000000000000e+00 5.0000000000000000e+00
-5.0000000000000000e+00 5.0000000000000000e+00
-5.0000000000000000e+00 5.0000000000000000e+00
ITEM: ATOMS id type xs ys zs
1 1 0.619546 0.41357 0.332359
2 1 0.810109 0.945514 0.0598664
3 1 0.241601 0.61458 0.122935
4 1 0.980256 0.257535 0.603027
5 1 0.290394 0.830388 0.722233
6 1 0.124693 0.903975 0.920811
7 1 0.723438 0.452579 0.345335
8 1 0.0493311 0.988033 0.639709
9 1 0.152957 0.808269 0.971118
10 1 0.0609556 0.192151 0.592638
11 1 0.917828 0.921486 0.0775907
12 1 0.237333 0.914677 0.639195
ITEM: TIMESTEP
25
ITEM: NUMBER OF ATOMS
12
ITEM: BOX BOUNDS ff ff ff
-5.0000000000000000e+00 5.0000000000000000e+00
-5.0000000000000000e+00 5.0000000000000000e+00
-5.0000000000000000e+00 5.0000000000000000e+00
ITEM: ATOMS id type xs ys zs
1 1 0.619146 0.413436 0.332315
2 1 0.809707 0.945589 0.0598095
3 1 0.241638 0.614571 0.122969
4 1 0.980178 0.257587 0.602955
5 1 0.28646 0.836382 0.718313
6 1 0.125119 0.904163 0.919366
7 1 0.723876 0.452708 0.345428
8 1 0.0531138 0.986965 0.639667
9 1 0.153662 0.807889 0.970335
10 1 0.0609626 0.192162 0.592636
11 1 0.918216 0.921387 0.0776625
12 1 0.236362 0.909921 0.645361
ITEM: TIMESTEP
26
ITEM: NUMBER OF ATOMS
12
ITEM: BOX BOUNDS ff ff ff
-5.0000000000000000e+00 5.0000000000000000e+00
-5.0000000000000000e+00 5.0000000000000000e+00
-5.0000000000000000e+00 5.0000000000000000e+00
ITEM: ATOMS id type xs ys zs
1 1 0.61939 0.413528 0.332346
2 1 0.809948 0.945534 0.0598494
3 1 0.241639 0.614571 0.122969
4 1 0.980177 0.257588 0.602954
5 1 0.285722 0.837417 0.717338
6 1 0.125206 0.903937 0.919431
7 1 0.723632 0.452615 0.345398
8 1 0.0533559 0.986856 0.639694
9 1 0.153606 0.808114 0.970194
10 1 0.0609627 0.192162 0.592636
11 1 0.917974 0.921441 0.0776229
12 1 0.236826 0.908994 0.646384
ITEM: TIMESTEP
27
ITEM: NUMBER OF ATOMS
12
ITEM: BOX BOUNDS ff ff ff
-5.0000000000000000e+00 5.0000000000000000e+00
-5.0000000000000000e+00 5.0000000000000000e+00
-5.0000000000000000e+00 5.0000000000000000e+00
ITEM: ATOMS id type xs ys zs
1 1 0.619227 0.413467 0.332326
2 1 0.809785 0.94557 0.0598231
3 1 0.241641 0.61457 0.122971
4 1 0.980172 0.257591 0.602949
5 1 0.285345 0.837798 0.717146
6 1 0.125243 0.904067 0.919168
7 1 0.723798 0.452675 0.345422
8 1 0.0542186 0.986467 0.639795
9 1 0.153683 0.807986 0.970186
10 1 0.0609631 0.192163 0.592635
11 1 0.918137 0.921403 0.0776502
12 1 0.236228 0.909 0.646746
ITEM: TIMESTEP
28
ITEM: NUMBER OF ATOMS
12
ITEM: BOX BOUNDS ff ff ff
-5.0000000000000000e+00 5.0000000000000000e+00
-5.0000000000000000e+00 5.0000000000000000e+00
-5.0000000000000000e+00 5.0000000000000000e+00
ITEM: ATOMS id type xs ys zs
1 1 0.61924 0.413474 0.332328
2 1 0.809796 0.945566 0.0598259
3 1 0.241645 0.614569 0.122975
4 1 0.980163 0.257597 0.602941
5 1 0.285194 0.837709 0.717576
6 1 0.125394 0.904024 0.918832
7 1 0.72379 0.452668 0.345425
8 1 0.0558233 0.985742 0.639981
9 1 0.15374 0.808032 0.970021
10 1 0.0609639 0.192164 0.592635
11 1 0.918124 0.921405 0.077649
12 1 0.234567 0.909808 0.646628
ITEM: TIMESTEP
29
ITEM: NUMBER OF ATOMS
12
ITEM: BOX BOUNDS ff ff ff
-5.0000000000000000e+00 5.0000000000000000e+00
-5.0000000000000000e+00 5.0000000000000000e+00
-5.0000000000000000e+00 5.0000000000000000e+00
ITEM: ATOMS id type xs ys zs
1 1 0.620231 0.413856 0.332456
2 1 0.810768 0.945339 0.0599921
3 1 0.241671 0.614562 0.122998
4 1 0.980107 0.257634 0.60289
5 1 0.282008 0.840392 0.717013
6 1 0.126556 0.902932 0.917233
7 1 0.722826 0.45228 0.345332
8 1 0.0658233 0.981227 0.64113
9 1 0.153844 0.809143 0.968579
10 1 0.0609686 0.192171 0.592634
11 1 0.917143 0.921615 0.0774931
12 1 0.226493 0.911606 0.649067
ITEM: TIMESTEP
30
ITEM: NUMBER OF ATOMS
12
ITEM: BOX BOUNDS ff ff ff
-5.0000000000000000e+00 5.0000000000000000e+00
-5.0000000000000000e+00 5.0000000000000000e+00
-5.0000000000000000e+00 5.0000000000000000e+00
ITEM: ATOMS id type xs ys zs
1 1 0.620682 0.414035 0.332516
2 1 0.811205 0.945231 0.0600704
3 1 0.241697 0.614555 0.123021
4 1 0.980053 0.25767 0.60284
5 1 0.278777 0.843142 0.71637
6 1 0.127571 0.902323 0.915387
7 1 0.722403 0.452095 0.345306
8 1 0.0758233 0.976713 0.642274
9 1 0.154084 0.80977 0.967411
10 1 0.0609732 0.192179 0.592632
11 1 0.916696 0.921706 0.0774249
12 1 0.218475 0.913338 0.651564
ITEM: TIMESTEP
31
ITEM: NUMBER OF ATOMS
12
ITEM: BOX BOUNDS ff ff ff
-5.0000000000000000e+00 5.0000000000000000e+00
-5.0000000000000000e+00 5.0000000000000000e+00
-5.0000000000000000e+00 5.0000000000000000e+00
ITEM: ATOMS id type xs ys zs
1 1 0.620325 0.413913 0.332475
2 1 0.810847 0.945301 0.0600174
3 1 0.241722 0.614548 0.123044
4 1 0.98 0.257706 0.602791
5 1 0.275552 0.845904 0.715673
6 1 0.128361 0.902431 0.91319
7 1 0.722787 0.452212 0.34538
8 1 0.0858233 0.972197 0.643412
9 1 0.154518 0.809681 0.966664
10 1 0.0609777 0.192186 0.59263
11 1 0.917046 0.921619 0.0774877
12 1 0.210482 0.91506 0.654052
ITEM: TIMESTEP
32
ITEM: NUMBER OF ATOMS
12
ITEM: BOX BOUNDS ff ff ff
-5.0000000000000000e+00 5.0000000000000000e+00
-5.0000000000000000e+00 5.0000000000000000e+00
-5.0000000000000000e+00 5.0000000000000000e+00
ITEM: ATOMS id type xs ys zs
1 1 0.618799 0.413342 0.332283
2 1 0.809317 0.945642 0.0597659
3 1 0.241723 0.614548 0.123044
4 1 0.979998 0.257707 0.60279
5 1 0.275152 0.846282 0.715401
6 1 0.128014 0.903757 0.912351
7 1 0.724313 0.452782 0.345573
8 1 0.0877163 0.971315 0.643608
9 1 0.154902 0.808358 0.967405
10 1 0.0609778 0.192186 0.59263
11 1 0.918576 0.921278 0.0777395
12 1 0.208951 0.915561 0.654227
ITEM: TIMESTEP
33
ITEM: NUMBER OF ATOMS
12
ITEM: BOX BOUNDS ff ff ff
-5.0000000000000000e+00 5.0000000000000000e+00
-5.0000000000000000e+00 5.0000000000000000e+00
-5.0000000000000000e+00 5.0000000000000000e+00
ITEM: ATOMS id type xs ys zs
1 1 0.618701 0.413307 0.332271
2 1 0.809206 0.945666 0.0597484
3 1 0.241725 0.614547 0.123047
4 1 0.979993 0.257711 0.602785
5 1 0.272683 0.848652 0.713621
6 1 0.128129 0.903821 0.911944
7 1 0.724414 0.452817 0.345589
8 1 0.0977163 0.966648 0.644651
9 1 0.154967 0.808304 0.967329
10 1 0.0609783 0.192186 0.59263
11 1 0.918685 0.921252 0.0777581
12 1 0.201242 0.917846 0.655445
ITEM: TIMESTEP
34
ITEM: NUMBER OF ATOMS
12
ITEM: BOX BOUNDS ff ff ff
-5.0000000000000000e+00 5.0000000000000000e+00
-5.0000000000000000e+00 5.0000000000000000e+00
-5.0000000000000000e+00 5.0000000000000000e+00
ITEM: ATOMS id type xs ys zs
1 1 0.619733 0.413693 0.332401
2 1 0.810252 0.945432 0.0599207
3 1 0.241726 0.614547 0.123047
4 1 0.979991 0.257712 0.602783
5 1 0.271225 0.849997 0.71259
6 1 0.128432 0.90289 0.912363
7 1 0.723383 0.452431 0.34546
8 1 0.0996735 0.965697 0.644921
9 1 0.154718 0.809239 0.966755
10 1 0.0609785 0.192187 0.59263
11 1 0.917639 0.921485 0.0775861
12 1 0.200688 0.917448 0.656361
ITEM: TIMESTEP
35
ITEM: NUMBER OF ATOMS
12
ITEM: BOX BOUNDS ff ff ff
-5.0000000000000000e+00 5.0000000000000000e+00
-5.0000000000000000e+00 5.0000000000000000e+00
-5.0000000000000000e+00 5.0000000000000000e+00
ITEM: ATOMS id type xs ys zs
1 1 0.619541 0.413621 0.332377
2 1 0.810055 0.945476 0.0598884
3 1 0.241727 0.614547 0.123048
4 1 0.979989 0.257713 0.602782
5 1 0.270616 0.850523 0.712234
6 1 0.128423 0.903049 0.912168
7 1 0.723576 0.452502 0.345485
8 1 0.100391 0.96533 0.645057
9 1 0.154774 0.809085 0.966818
10 1 0.0609786 0.192187 0.59263
11 1 0.917836 0.921441 0.0776186
12 1 0.200532 0.917284 0.656712
ITEM: TIMESTEP
36
ITEM: NUMBER OF ATOMS
12
ITEM: BOX BOUNDS ff ff ff
-5.0000000000000000e+00 5.0000000000000000e+00
-5.0000000000000000e+00 5.0000000000000000e+00
-5.0000000000000000e+00 5.0000000000000000e+00
ITEM: ATOMS id type xs ys zs
1 1 0.619394 0.413567 0.332359
2 1 0.809906 0.945509 0.059864
3 1 0.241727 0.614547 0.123048
4 1 0.979989 0.257713 0.602781
5 1 0.270706 0.850409 0.712371
6 1 0.128404 0.903175 0.912046
7 1 0.723723 0.452557 0.345504
8 1 0.10025 0.965384 0.645069
9 1 0.154814 0.808961 0.966877
10 1 0.0609786 0.192187 0.59263
11 1 0.917985 0.921408 0.0776432
12 1 0.200562 0.917342 0.656625
ITEM: TIMESTEP
37
ITEM: NUMBER OF ATOMS
12
ITEM: BOX BOUNDS ff ff ff
-5.0000000000000000e+00 5.0000000000000000e+00
-5.0000000000000000e+00 5.0000000000000000e+00
-5.0000000000000000e+00 5.0000000000000000e+00
ITEM: ATOMS id type xs ys zs
1 1 0.61933 0.413543 0.332351
2 1 0.80984 0.945523 0.0598533
3 1 0.241728 0.614547 0.123049
4 1 0.979987 0.257714 0.60278
5 1 0.270756 0.850305 0.712536
6 1 0.128423 0.903223 0.911924
7 1 0.723788 0.452581 0.345513
8 1 0.100075 0.965442 0.645105
9 1 0.154837 0.808917 0.966879
10 1 0.0609787 0.192187 0.59263
11 1 0.91805 0.921393 0.0776542
12 1 0.200645 0.917383 0.656544
ITEM: TIMESTEP
38
ITEM: NUMBER OF ATOMS
12
ITEM: BOX BOUNDS ff ff ff
-5.0000000000000000e+00 5.0000000000000000e+00
-5.0000000000000000e+00 5.0000000000000000e+00
-5.0000000000000000e+00 5.0000000000000000e+00
ITEM: ATOMS id type xs ys zs
1 1 0.619406 0.413572 0.33236
2 1 0.809916 0.945506 0.0598663
3 1 0.24173 0.614546 0.123051
4 1 0.979983 0.257717 0.602776
5 1 0.270643 0.850224 0.712871
6 1 0.128561 0.903122 0.911667
7 1 0.723715 0.452551 0.345506
8 1 0.0999684 0.965405 0.64528
9 1 0.154841 0.809032 0.96673
10 1 0.0609791 0.192188 0.59263
11 1 0.917974 0.921409 0.077642
12 1 0.200725 0.917486 0.656438
ITEM: TIMESTEP
39
ITEM: NUMBER OF ATOMS
12
ITEM: BOX BOUNDS ff ff ff
-5.0000000000000000e+00 5.0000000000000000e+00
-5.0000000000000000e+00 5.0000000000000000e+00
-5.0000000000000000e+00 5.0000000000000000e+00
ITEM: ATOMS id type xs ys zs
1 1 0.619232 0.413518 0.332343
2 1 0.809724 0.945537 0.0598416
3 1 0.241759 0.614538 0.123077
4 1 0.979921 0.257758 0.602719
5 1 0.267879 0.85027 0.71652
6 1 0.130151 0.902807 0.907489
7 1 0.72392 0.452597 0.345562
8 1 0.099228 0.964554 0.64778
9 1 0.155201 0.809529 0.965319
10 1 0.0609843 0.192196 0.592628
11 1 0.918156 0.921359 0.077678
12 1 0.202285 0.918093 0.655862
ITEM: TIMESTEP
40
ITEM: NUMBER OF ATOMS
12
ITEM: BOX BOUNDS ff ff ff
-5.0000000000000000e+00 5.0000000000000000e+00
-5.0000000000000000e+00 5.0000000000000000e+00
-5.0000000000000000e+00 5.0000000000000000e+00
ITEM: ATOMS id type xs ys zs
1 1 0.619125 0.413501 0.332337
2 1 0.809583 0.945546 0.0598323
3 1 0.241816 0.614523 0.123128
4 1 0.979797 0.257841 0.602605
5 1 0.262295 0.850424 0.723759
6 1 0.133394 0.901939 0.899293
7 1 0.724091 0.4526 0.345644
8 1 0.0987525 0.962403 0.652851
9 1 0.155854 0.810758 0.962355
10 1 0.0609946 0.192212 0.592624
11 1 0.918276 0.921312 0.0777099
12 1 0.204461 0.919698 0.654679
ITEM: TIMESTEP
41
ITEM: NUMBER OF ATOMS
12
ITEM: BOX BOUNDS ff ff ff
-5.0000000000000000e+00 5.0000000000000000e+00
-5.0000000000000000e+00 5.0000000000000000e+00
-5.0000000000000000e+00 5.0000000000000000e+00
ITEM: ATOMS id type xs ys zs
1 1 0.619351 0.413612 0.332376
2 1 0.809772 0.945476 0.0598808
3 1 0.241888 0.614503 0.123192
4 1 0.979642 0.257944 0.602462
5 1 0.254709 0.851272 0.732245
6 1 0.1376 0.900377 0.889293
7 1 0.723945 0.452471 0.345701
8 1 0.0993216 0.959222 0.659257
9 1 0.156562 0.812766 0.95831
10 1 0.0610074 0.192233 0.592619
11 1 0.918061 0.921335 0.0776897
12 1 0.20658 0.921547 0.65379
ITEM: TIMESTEP
42
ITEM: NUMBER OF ATOMS
12
ITEM: BOX BOUNDS ff ff ff
-5.0000000000000000e+00 5.0000000000000000e+00
-5.0000000000000000e+00 5.0000000000000000e+00
-5.0000000000000000e+00 5.0000000000000000e+00
ITEM: ATOMS id type xs ys zs
1 1 0.619694 0.413768 0.332431
2 1 0.810078 0.945378 0.0599489
3 1 0.241961 0.614483 0.123258
4 1 0.979484 0.258049 0.602317
5 1 0.24556 0.853896 0.739279
6 1 0.142166 0.898126 0.879293
7 1 0.723683 0.452296 0.345745
8 1 0.101406 0.95538 0.665862
9 1 0.157168 0.815442 0.953648
10 1 0.0610205 0.192254 0.592615
11 1 0.917729 0.921384 0.0776505
12 1 0.208489 0.922301 0.654771
ITEM: TIMESTEP
43
ITEM: NUMBER OF ATOMS
12
ITEM: BOX BOUNDS ff ff ff
-5.0000000000000000e+00 5.0000000000000000e+00
-5.0000000000000000e+00 5.0000000000000000e+00
-5.0000000000000000e+00 5.0000000000000000e+00
ITEM: ATOMS id type xs ys zs
1 1 0.619084 0.413544 0.332353
2 1 0.809457 0.945515 0.0598477
3 1 0.241965 0.614482 0.123261
4 1 0.979477 0.258055 0.60231
5 1 0.243623 0.855825 0.738289
6 1 0.142756 0.89795 0.878059
7 1 0.724297 0.45252 0.345828
8 1 0.102285 0.954811 0.66641
9 1 0.15724 0.815531 0.953382
10 1 0.0610212 0.192255 0.592614
11 1 0.918348 0.921245 0.0777532
12 1 0.208885 0.921025 0.656711
ITEM: TIMESTEP
44
ITEM: NUMBER OF ATOMS
12
ITEM: BOX BOUNDS ff ff ff
-5.0000000000000000e+00 5.0000000000000000e+00
-5.0000000000000000e+00 5.0000000000000000e+00
-5.0000000000000000e+00 5.0000000000000000e+00
ITEM: ATOMS id type xs ys zs
1 1 0.619161 0.413572 0.332363
2 1 0.809536 0.945498 0.0598606
3 1 0.241965 0.614482 0.123261
4 1 0.979476 0.258055 0.602309
5 1 0.243627 0.855687 0.738576
6 1 0.142809 0.897908 0.87799
7 1 0.72422 0.452491 0.345818
8 1 0.102333 0.954775 0.66645
9 1 0.15724 0.815563 0.953343
10 1 0.0610212 0.192255 0.592614
11 1 0.91827 0.921262 0.0777403
12 1 0.208782 0.92121 0.656492
ITEM: TIMESTEP
45
ITEM: NUMBER OF ATOMS
12
ITEM: BOX BOUNDS ff ff ff
-5.0000000000000000e+00 5.0000000000000000e+00
-5.0000000000000000e+00 5.0000000000000000e+00
-5.0000000000000000e+00 5.0000000000000000e+00
ITEM: ATOMS id type xs ys zs
1 1 0.619731 0.413784 0.332436
2 1 0.810114 0.945368 0.0599559
3 1 0.241966 0.614481 0.123262
4 1 0.979474 0.258056 0.602307
5 1 0.243362 0.854953 0.740574
6 1 0.143299 0.897543 0.877314
7 1 0.723651 0.452279 0.345746
8 1 0.102579 0.954501 0.666846
9 1 0.157241 0.815825 0.953001
10 1 0.0610214 0.192255 0.592614
11 1 0.917692 0.921391 0.0776454
12 1 0.208309 0.92232 0.655114
ITEM: TIMESTEP
46
ITEM: NUMBER OF ATOMS
12
ITEM: BOX BOUNDS ff ff ff
-5.0000000000000000e+00 5.0000000000000000e+00
-5.0000000000000000e+00 5.0000000000000000e+00
-5.0000000000000000e+00 5.0000000000000000e+00
ITEM: ATOMS id type xs ys zs
1 1 0.619108 0.413554 0.332356
2 1 0.809481 0.945509 0.059852
3 1 0.241967 0.614481 0.123263
4 1 0.979472 0.258057 0.602306
5 1 0.241972 0.856401 0.739814
6 1 0.143754 0.897398 0.876446
7 1 0.724275 0.452509 0.345827
8 1 0.101809 0.954551 0.667329
9 1 0.157282 0.815858 0.952872
10 1 0.0610215 0.192256 0.592614
11 1 0.918324 0.92125 0.0777496
12 1 0.209974 0.920934 0.656388
ITEM: TIMESTEP
47
ITEM: NUMBER OF ATOMS
12
ITEM: BOX BOUNDS ff ff ff
-5.0000000000000000e+00 5.0000000000000000e+00
-5.0000000000000000e+00 5.0000000000000000e+00
-5.0000000000000000e+00 5.0000000000000000e+00
ITEM: ATOMS id type xs ys zs
1 1 0.61943 0.413673 0.332398
2 1 0.809807 0.945436 0.0599058
3 1 0.241967 0.614481 0.123263
4 1 0.979471 0.258058 0.602305
5 1 0.241871 0.855889 0.74107
6 1 0.14402 0.897204 0.876079
7 1 0.723954 0.45239 0.345786
8 1 0.102694 0.954177 0.667452
9 1 0.157284 0.815992 0.952695
10 1 0.0610216 0.192256 0.592614
11 1 0.917998 0.921322 0.077696
12 1 0.208921 0.921879 0.655553
ITEM: TIMESTEP
48
ITEM: NUMBER OF ATOMS
12
ITEM: BOX BOUNDS ff ff ff
-5.0000000000000000e+00 5.0000000000000000e+00
-5.0000000000000000e+00 5.0000000000000000e+00
-5.0000000000000000e+00 5.0000000000000000e+00
ITEM: ATOMS id type xs ys zs
1 1 0.621214 0.414337 0.332627
2 1 0.811606 0.945032 0.0602039
3 1 0.241977 0.614478 0.123272
4 1 0.97945 0.258072 0.602285
5 1 0.231871 0.86042 0.748293
6 1 0.149794 0.89378 0.867196
7 1 0.722181 0.451722 0.34557
8 1 0.105862 0.951024 0.671796
9 1 0.157467 0.818045 0.949652