ITEM: TIMESTEP
0
ITEM: NUMBER OF ATOMS
10
ITEM: BOX BOUNDS ff ff ff
-5.0000000000000000e+00 5.0000000000000000e+00
-5.0000000000000000e+00 5.0000000000000000e+00
-5.0000000000000000e+00 5.0000000000000000e+00
ITEM: ATOMS id type xs ys zs
1 1 0.559765 0.96999 0.618543
2 1 0.854068 0.3184 0.340956
3 1 0.453797 0.971919 0.0458363
4 1 0.370117 0.562852 0.86126
5 1 0.193722 0.889081 0.791893
6 1 0.348377 0.174419 0.455341
7 1 0.924465 0.481293 0.0871237
8 1 0.287666 0.798441 0.394994
9 1 0.671189 0.668752 0.722691
10 1 0.270381 0.300879 0.871481
ITEM: TIMESTEP
1
ITEM: NUMBER OF ATOMS
10
ITEM: BOX BOUNDS ff ff ff
-5.0000000000000000e+00 5.0000000000000000e+00
-5.0000000000000000e+00 5.0000000000000000e+00
-5.0000000000000000e+00 5.0000000000000000e+00
ITEM: ATOMS id type xs ys zs
1 1 0.55969 0.96944 0.618645
2 1 0.85424 0.318869 0.340256
3 1 0.453764 0.971874 0.0459308
4 1 0.369736 0.561548 0.861086
5 1 0.193973 0.888872 0.791779
6 1 0.348385 0.174467 0.455417
7 1 0.924259 0.480836 0.0878465
8 1 0.287821 0.798553 0.395148
9 1 0.670653 0.669053 0.722673
10 1 0.271026 0.302513 0.87134
ITEM: TIMESTEP
2
ITEM: NUMBER OF ATOMS
10
ITEM: BOX BOUNDS ff ff ff
-5.0000000000000000e+00 5.0000000000000000e+00
-5.0000000000000000e+00 5.0000000000000000e+00
-5.0000000000000000e+00 5.0000000000000000e+00
ITEM: ATOMS id type xs ys zs
1 1 0.559611 0.96884 0.618756
2 1 0.854433 0.319393 0.339474
3 1 0.453728 0.971826 0.0460326
4 1 0.369274 0.560013 0.860907
5 1 0.194243 0.888649 0.791654
6 1 0.348394 0.174518 0.455498
7 1 0.92403 0.480326 0.0886522
8 1 0.287989 0.798675 0.395315
9 1 0.670077 0.669384 0.722649
10 1 0.27177 0.304401 0.871182
ITEM: TIMESTEP
3
ITEM: NUMBER OF ATOMS
10
ITEM: BOX BOUNDS ff ff ff
-5.0000000000000000e+00 5.0000000000000000e+00
-5.0000000000000000e+00 5.0000000000000000e+00
-5.0000000000000000e+00 5.0000000000000000e+00
ITEM: ATOMS id type xs ys zs
1 1 0.559531 0.968217 0.618873
2 1 0.85464 0.319951 0.338639
3 1 0.453691 0.971777 0.0461368
4 1 0.368733 0.558265 0.860735
5 1 0.194518 0.888424 0.791525
6 1 0.348403 0.174572 0.455581
7 1 0.923785 0.479782 0.0895112
8 1 0.288161 0.798799 0.395487
9 1 0.669487 0.669731 0.722619
10 1 0.272599 0.306509 0.871013
ITEM: TIMESTEP
4
ITEM: NUMBER OF ATOMS
10
ITEM: BOX BOUNDS ff ff ff
-5.0000000000000000e+00 5.0000000000000000e+00
-5.0000000000000000e+00 5.0000000000000000e+00
-5.0000000000000000e+00 5.0000000000000000e+00
ITEM: ATOMS id type xs ys zs
1 1 0.559452 0.967571 0.618995
2 1 0.854862 0.320545 0.337748
3 1 0.453653 0.971727 0.0462432
4 1 0.36809 0.556251 0.860574
5 1 0.194796 0.888196 0.791391
6 1 0.348413 0.174627 0.455665
7 1 0.923525 0.479202 0.0904274
8 1 0.288339 0.798926 0.395664
9 1 0.668886 0.670095 0.722582
10 1 0.273532 0.308886 0.87083
ITEM: TIMESTEP
5
ITEM: NUMBER OF ATOMS
10
ITEM: BOX BOUNDS ff ff ff
-5.0000000000000000e+00 5.0000000000000000e+00
-5.0000000000000000e+00 5.0000000000000000e+00
-5.0000000000000000e+00 5.0000000000000000e+00
ITEM: ATOMS id type xs ys zs
1 1 0.559372 0.966896 0.619124
2 1 0.855104 0.321184 0.336788
3 1 0.453614 0.971675 0.0463523
4 1 0.367313 0.553884 0.860426
5 1 0.19508 0.887967 0.791252
6 1 0.348423 0.174683 0.455751
7 1 0.923245 0.478578 0.091413
8 1 0.288521 0.799057 0.395847
9 1 0.668271 0.670479 0.722537
10 1 0.274604 0.311622 0.870629
ITEM: TIMESTEP
6
ITEM: NUMBER OF ATOMS
10
ITEM: BOX BOUNDS ff ff ff
-5.0000000000000000e+00 5.0000000000000000e+00
-5.0000000000000000e+00 5.0000000000000000e+00
-5.0000000000000000e+00 5.0000000000000000e+00
ITEM: ATOMS id type xs ys zs
1 1 0.559292 0.966185 0.619261
2 1 0.855369 0.32188 0.335738
3 1 0.453574 0.971622 0.0464655
4 1 0.366344 0.551014 0.860299
5 1 0.195372 0.887733 0.791106
6 1 0.348433 0.174742 0.45584
7 1 0.92294 0.477897 0.0924883
8 1 0.288712 0.799194 0.396039
9 1 0.667638 0.670889 0.722482
10 1 0.275873 0.31487 0.870402
ITEM: TIMESTEP
7
ITEM: NUMBER OF ATOMS
10
ITEM: BOX BOUNDS ff ff ff
-5.0000000000000000e+00 5.0000000000000000e+00
-5.0000000000000000e+00 5.0000000000000000e+00
-5.0000000000000000e+00 5.0000000000000000e+00
ITEM: ATOMS id type xs ys zs
1 1 0.55921 0.965418 0.619411
2 1 0.855668 0.322658 0.334564
3 1 0.453532 0.971566 0.0465853
4 1 0.365082 0.54737 0.860198
5 1 0.195678 0.887492 0.790948
6 1 0.348444 0.174805 0.455934
7 1 0.922599 0.477134 0.09369
8 1 0.288915 0.799338 0.396243
9 1 0.666972 0.671338 0.722413
10 1 0.277448 0.318907 0.870134
ITEM: TIMESTEP
8
ITEM: NUMBER OF ATOMS
10
ITEM: BOX BOUNDS ff ff ff
-5.0000000000000000e+00 5.0000000000000000e+00
-5.0000000000000000e+00 5.0000000000000000e+00
-5.0000000000000000e+00 5.0000000000000000e+00
ITEM: ATOMS id type xs ys zs
1 1 0.559122 0.964555 0.61958
2 1 0.856021 0.323568 0.333188
3 1 0.453485 0.971503 0.0467175
4 1 0.363303 0.542363 0.860142
5 1 0.196012 0.887232 0.790771
6 1 0.348456 0.174876 0.456036
7 1 0.9222 0.476242 0.0950968
8 1 0.289141 0.799498 0.396471
9 1 0.666246 0.671851 0.722324
10 1 0.279561 0.324338 0.869794
ITEM: TIMESTEP
9
ITEM: NUMBER OF ATOMS
10
ITEM: BOX BOUNDS ff ff ff
-5.0000000000000000e+00 5.0000000000000000e+00
-5.0000000000000000e+00 5.0000000000000000e+00
-5.0000000000000000e+00 5.0000000000000000e+00
ITEM: ATOMS id type xs ys zs
1 1 0.559019 0.963472 0.619794
2 1 0.856486 0.324758 0.331383
3 1 0.453428 0.971427 0.0468807
4 1 0.36038 0.534315 0.860174
5 1 0.196417 0.886922 0.790548
6 1 0.348472 0.174963 0.456162
7 1 0.921679 0.475073 0.0969387
8 1 0.28942 0.799696 0.396754
9 1 0.665363 0.672505 0.722197
10 1 0.282884 0.332894 0.869289
ITEM: TIMESTEP
10
ITEM: NUMBER OF ATOMS
10
ITEM: BOX BOUNDS ff ff ff
-5.0000000000000000e+00 5.0000000000000000e+00
-5.0000000000000000e+00 5.0000000000000000e+00
-5.0000000000000000e+00 5.0000000000000000e+00
ITEM: ATOMS id type xs ys zs
1 1 0.55893 0.962499 0.619988
2 1 0.856922 0.325867 0.3297
3 1 0.453377 0.971359 0.0470253
4 1 0.356846 0.524753 0.860325
5 1 0.196771 0.886655 0.790347
6 1 0.348486 0.175042 0.456272
7 1 0.921193 0.473983 0.0986544
8 1 0.28967 0.799872 0.397007
9 1 0.664593 0.673103 0.72207
10 1 0.28676 0.342894 0.868731
ITEM: TIMESTEP
11
ITEM: NUMBER OF ATOMS
10
ITEM: BOX BOUNDS ff ff ff
-5.0000000000000000e+00 5.0000000000000000e+00
-5.0000000000000000e+00 5.0000000000000000e+00
-5.0000000000000000e+00 5.0000000000000000e+00
ITEM: ATOMS id type xs ys zs
1 1 0.558862 0.961731 0.620142
2 1 0.857274 0.326759 0.328343
3 1 0.453337 0.971306 0.0471384
4 1 0.353235 0.515089 0.860552
5 1 0.197046 0.886451 0.790188
6 1 0.348497 0.175103 0.456358
7 1 0.920803 0.473105 0.100037
8 1 0.289865 0.80001 0.397205
9 1 0.663996 0.673578 0.721965
10 1 0.290632 0.352894 0.868192
ITEM: TIMESTEP
12
ITEM: NUMBER OF ATOMS
10
ITEM: BOX BOUNDS ff ff ff
-5.0000000000000000e+00 5.0000000000000000e+00
-5.0000000000000000e+00 5.0000000000000000e+00
-5.0000000000000000e+00 5.0000000000000000e+00
ITEM: ATOMS id type xs ys zs
1 1 0.558807 0.961097 0.620269
2 1 0.857568 0.327504 0.327211
3 1 0.453305 0.971262 0.0472315
4 1 0.349576 0.505363 0.860825
5 1 0.197271 0.886284 0.790058
6 1 0.348507 0.175154 0.456429
7 1 0.920476 0.472372 0.10119
8 1 0.290026 0.800123 0.397368
9 1 0.663508 0.673972 0.721876
10 1 0.294503 0.362894 0.867664
ITEM: TIMESTEP
13
ITEM: NUMBER OF ATOMS
10
ITEM: BOX BOUNDS ff ff ff
-5.0000000000000000e+00 5.0000000000000000e+00
-5.0000000000000000e+00 5.0000000000000000e+00
-5.0000000000000000e+00 5.0000000000000000e+00
ITEM: ATOMS id type xs ys zs
1 1 0.55876 0.960547 0.620379
2 1 0.857825 0.328153 0.326223
3 1 0.453276 0.971224 0.0473121
4 1 0.345889 0.495599 0.861127
5 1 0.197466 0.88614 0.789944
6 1 0.348515 0.175198 0.45649
7 1 0.920192 0.471733 0.102196
8 1 0.290165 0.800221 0.397509
9 1 0.663087 0.674315 0.721797
10 1 0.298373 0.372894 0.867142
ITEM: TIMESTEP
14
ITEM: NUMBER OF ATOMS
10
ITEM: BOX BOUNDS ff ff ff
-5.0000000000000000e+00 5.0000000000000000e+00
-5.0000000000000000e+00 5.0000000000000000e+00
-5.0000000000000000e+00 5.0000000000000000e+00
ITEM: ATOMS id type xs ys zs
1 1 0.558718 0.96006 0.620477
2 1 0.858053 0.32873 0.325346
3 1 0.453251 0.97119 0.0473834
4 1 0.34218 0.485807 0.861452
5 1 0.197638 0.886014 0.789843
6 1 0.348522 0.175237 0.456544
7 1 0.919939 0.471165 0.103089
8 1 0.290288 0.800308 0.397634
9 1 0.662714 0.674619 0.721727
10 1 0.302243 0.382894 0.866624
ITEM: TIMESTEP
15
ITEM: NUMBER OF ATOMS
10
ITEM: BOX BOUNDS ff ff ff
-5.0000000000000000e+00 5.0000000000000000e+00
-5.0000000000000000e+00 5.0000000000000000e+00
-5.0000000000000000e+00 5.0000000000000000e+00
ITEM: ATOMS id type xs ys zs
1 1 0.558718 0.960056 0.620478
2 1 0.858056 0.328737 0.325336
3 1 0.453251 0.97119 0.047384
4 1 0.342423 0.486434 0.86142
5 1 0.197639 0.886013 0.789842
6 1 0.348522 0.175238 0.456544
7 1 0.919936 0.471159 0.1031
8 1 0.290289 0.800309 0.397635
9 1 0.662712 0.674622 0.721726
10 1 0.302001 0.382269 0.866655
ITEM: TIMESTEP
16
ITEM: NUMBER OF ATOMS
10
ITEM: BOX BOUNDS ff ff ff
-5.0000000000000000e+00 5.0000000000000000e+00
-5.0000000000000000e+00 5.0000000000000000e+00
-5.0000000000000000e+00 5.0000000000000000e+00
ITEM: ATOMS id type xs ys zs
1 1 0.558718 0.960054 0.620478
2 1 0.858058 0.328741 0.325329
3 1 0.453251 0.97119 0.0473843
4 1 0.342453 0.486511 0.861416
5 1 0.19764 0.886013 0.789842
6 1 0.348522 0.175238 0.456544
7 1 0.919935 0.471155 0.103106
8 1 0.29029 0.80031 0.397636
9 1 0.662711 0.674624 0.721725
10 1 0.301971 0.382192 0.866659
ITEM: TIMESTEP
17
ITEM: NUMBER OF ATOMS
10
ITEM: BOX BOUNDS ff ff ff
-5.0000000000000000e+00 5.0000000000000000e+00
-5.0000000000000000e+00 5.0000000000000000e+00
-5.0000000000000000e+00 5.0000000000000000e+00
ITEM: ATOMS id type xs ys zs
1 1 0.558717 0.960048 0.620479
2 1 0.858061 0.328749 0.325317
3 1 0.453251 0.97119 0.047385
4 1 0.342488 0.486598 0.861411
5 1 0.197641 0.886012 0.789841
6 1 0.348522 0.175238 0.456545
7 1 0.919931 0.471146 0.103119
8 1 0.290291 0.80031 0.397637
9 1 0.662708 0.674627 0.721724
10 1 0.301938 0.382106 0.866663
ITEM: TIMESTEP
18
ITEM: NUMBER OF ATOMS
10
ITEM: BOX BOUNDS ff ff ff
-5.0000000000000000e+00 5.0000000000000000e+00
-5.0000000000000000e+00 5.0000000000000000e+00
-5.0000000000000000e+00 5.0000000000000000e+00
ITEM: ATOMS id type xs ys zs
1 1 0.558716 0.960028 0.620483
2 1 0.858074 0.328781 0.325268
3 1 0.45325 0.971189 0.0473876
4 1 0.342512 0.486659 0.861405
5 1 0.197647 0.886009 0.789836
6 1 0.348523 0.17524 0.456547
7 1 0.919917 0.471115 0.103169
8 1 0.290296 0.800314 0.397642
9 1 0.662696 0.674642 0.721719
10 1 0.301917 0.382051 0.866664
ITEM: TIMESTEP
19
ITEM: NUMBER OF ATOMS
10
ITEM: BOX BOUNDS ff ff ff
-5.0000000000000000e+00 5.0000000000000000e+00
-5.0000000000000000e+00 5.0000000000000000e+00
-5.0000000000000000e+00 5.0000000000000000e+00
ITEM: ATOMS id type xs ys zs
1 1 0.558712 0.959943 0.620501
2 1 0.85813 0.328916 0.32506
3 1 0.453246 0.971183 0.0473988
4 1 0.342545 0.486732 0.86139
5 1 0.19767 0.885996 0.789819
6 1 0.348524 0.175247 0.456554
7 1 0.919858 0.470981 0.103379
8 1 0.290316 0.800328 0.397662
9 1 0.662648 0.674702 0.721698
10 1 0.301899 0.381999 0.866659
ITEM: TIMESTEP
20
ITEM: NUMBER OF ATOMS
10
ITEM: BOX BOUNDS ff ff ff
-5.0000000000000000e+00 5.0000000000000000e+00
-5.0000000000000000e+00 5.0000000000000000e+00
-5.0000000000000000e+00 5.0000000000000000e+00
ITEM: ATOMS id type xs ys zs
1 1 0.558687 0.959442 0.620607
2 1 0.858457 0.329713 0.323836
3 1 0.453223 0.971153 0.0474645
4 1 0.342519 0.486594 0.861329
5 1 0.197807 0.885918 0.789713
6 1 0.348533 0.175286 0.456599
7 1 0.919509 0.470192 0.104617
8 1 0.290433 0.800409 0.397782
9 1 0.662366 0.675059 0.721574
10 1 0.302014 0.382261 0.866599
ITEM: TIMESTEP
21
ITEM: NUMBER OF ATOMS
10
ITEM: BOX BOUNDS ff ff ff
-5.0000000000000000e+00 5.0000000000000000e+00
-5.0000000000000000e+00 5.0000000000000000e+00
-5.0000000000000000e+00 5.0000000000000000e+00
ITEM: ATOMS id type xs ys zs
1 1 0.55849 0.955405 0.621455
2 1 0.861099 0.336147 0.313953
3 1 0.453038 0.970905 0.0479935
4 1 0.343188 0.487749 0.860725
5 1 0.198909 0.885291 0.788863
6 1 0.348603 0.1756 0.456957
7 1 0.916693 0.463823 0.114617
8 1 0.291377 0.801066 0.398746
9 1 0.66009 0.677936 0.720573
10 1 0.302061 0.382104 0.866237
ITEM: TIMESTEP
22
ITEM: NUMBER OF ATOMS
10
ITEM: BOX BOUNDS ff ff ff
-5.0000000000000000e+00 5.0000000000000000e+00
-5.0000000000000000e+00 5.0000000000000000e+00
-5.0000000000000000e+00 5.0000000000000000e+00
ITEM: ATOMS id type xs ys zs
1 1 0.558292 0.951373 0.622303
2 1 0.863741 0.34258 0.30407
3 1 0.452853 0.970658 0.0485219
4 1 0.343716 0.488543 0.860142
5 1 0.20001 0.884664 0.788013
6 1 0.348673 0.175915 0.457314
7 1 0.913878 0.457453 0.124617
8 1 0.29232 0.801722 0.399709
9 1 0.657817 0.68081 0.719574
10 1 0.302249 0.382308 0.865856
ITEM: TIMESTEP
23
ITEM: NUMBER OF ATOMS
10
ITEM: BOX BOUNDS ff ff ff
-5.0000000000000000e+00 5.0000000000000000e+00
-5.0000000000000000e+00 5.0000000000000000e+00
-5.0000000000000000e+00 5.0000000000000000e+00
ITEM: ATOMS id type xs ys zs
1 1 0.558096 0.947361 0.623147
2 1 0.866384 0.349014 0.294186
3 1 0.452669 0.970413 0.0490473
4 1 0.343935 0.488545 0.859603
5 1 0.201105 0.884042 0.787169
6 1 0.348742 0.176227 0.45767
7 1 0.911062 0.451083 0.134617
8 1 0.293257 0.802375 0.400667
9 1 0.655556 0.68367 0.718579
10 1 0.302742 0.383297 0.865435
ITEM: TIMESTEP
24
ITEM: NUMBER OF ATOMS
10
ITEM: BOX BOUNDS ff ff ff
-5.0000000000000000e+00 5.0000000000000000e+00
-5.0000000000000000e+00 5.0000000000000000e+00
-5.0000000000000000e+00 5.0000000000000000e+00
ITEM: ATOMS id type xs ys zs
1 1 0.558098 0.947341 0.623152
2 1 0.866466 0.349204 0.29389
3 1 0.452668 0.970412 0.049049
4 1 0.343644 0.487801 0.859643
5 1 0.201108 0.88404 0.787166
6 1 0.348743 0.176228 0.457671
7 1 0.910979 0.450894 0.134914
8 1 0.293261 0.802377 0.400671
9 1 0.655546 0.683685 0.718573
10 1 0.303035 0.384045 0.865392
ITEM: TIMESTEP
25
ITEM: NUMBER OF ATOMS
10
ITEM: BOX BOUNDS ff ff ff
-5.0000000000000000e+00 5.0000000000000000e+00
-5.0000000000000000e+00 5.0000000000000000e+00
-5.0000000000000000e+00 5.0000000000000000e+00
ITEM: ATOMS id type xs ys zs
1 1 0.558099 0.947328 0.623155
2 1 0.866521 0.34933 0.293693
3 1 0.452668 0.970411 0.04905
4 1 0.343606 0.487704 0.859647
5 1 0.201111 0.884038 0.787164
6 1 0.348743 0.176229 0.457672
7 1 0.910924 0.450768 0.13511
8 1 0.293263 0.802378 0.400673
9 1 0.65554 0.683696 0.718569
10 1 0.303074 0.384144 0.865386
ITEM: TIMESTEP
26
ITEM: NUMBER OF ATOMS
10
ITEM: BOX BOUNDS ff ff ff
-5.0000000000000000e+00 5.0000000000000000e+00
-5.0000000000000000e+00 5.0000000000000000e+00
-5.0000000000000000e+00 5.0000000000000000e+00
ITEM: ATOMS id type xs ys zs
1 1 0.558099 0.947316 0.623158
2 1 0.866574 0.34945 0.293505
3 1 0.452668 0.970411 0.0490511
4 1 0.343704 0.487952 0.859632
5 1 0.201113 0.884037 0.787162
6 1 0.348743 0.176229 0.457672
7 1 0.910871 0.450648 0.135299
8 1 0.293265 0.80238 0.400675
9 1 0.655534 0.683705 0.718566
10 1 0.302978 0.383897 0.865399
ITEM: TIMESTEP
27
ITEM: NUMBER OF ATOMS
10
ITEM: BOX BOUNDS ff ff ff
-5.0000000000000000e+00 5.0000000000000000e+00
-5.0000000000000000e+00 5.0000000000000000e+00
-5.0000000000000000e+00 5.0000000000000000e+00
ITEM: ATOMS id type xs ys zs
1 1 0.558101 0.947296 0.623164
2 1 0.866666 0.349663 0.293173
3 1 0.452667 0.97041 0.0490528
4 1 0.34384 0.488298 0.859611
5 1 0.201117 0.884035 0.787159
6 1 0.348743 0.17623 0.457674
7 1 0.910778 0.450435 0.135631
8 1 0.293268 0.802382 0.400679
9 1 0.655523 0.683722 0.71856
10 1 0.302844 0.383555 0.865417
ITEM: TIMESTEP
28
ITEM: NUMBER OF ATOMS
10
ITEM: BOX BOUNDS ff ff ff
-5.0000000000000000e+00 5.0000000000000000e+00
-5.0000000000000000e+00 5.0000000000000000e+00
-5.0000000000000000e+00 5.0000000000000000e+00
ITEM: ATOMS id type xs ys zs
1 1 0.558143 0.946684 0.62332
2 1 0.869455 0.356061 0.283183
3 1 0.452649 0.970386 0.0491045
4 1 0.343716 0.487934 0.859577
5 1 0.201237 0.88397 0.787068
6 1 0.348748 0.176261 0.457709
7 1 0.907974 0.444043 0.145631
8 1 0.293372 0.802449 0.40079
9 1 0.655216 0.684217 0.718383
10 1 0.303037 0.384023 0.865354
ITEM: TIMESTEP
29
ITEM: NUMBER OF ATOMS
10
ITEM: BOX BOUNDS ff ff ff
-5.0000000000000000e+00 5.0000000000000000e+00
-5.0000000000000000e+00 5.0000000000000000e+00
-5.0000000000000000e+00 5.0000000000000000e+00
ITEM: ATOMS id type xs ys zs
1 1 0.558179 0.946169 0.623452
2 1 0.872246 0.362458 0.273192
3 1 0.452634 0.970366 0.049148
4 1 0.344249 0.489255 0.859458
5 1 0.201337 0.883915 0.786991
6 1 0.348752 0.176286 0.457738
7 1 0.905172 0.43765 0.155631
8 1 0.293459 0.802505 0.400883
9 1 0.654958 0.684634 0.718234
10 1 0.302562 0.382789 0.865393
ITEM: TIMESTEP
30
ITEM: NUMBER OF ATOMS
10
ITEM: BOX BOUNDS ff ff ff
-5.0000000000000000e+00 5.0000000000000000e+00
-5.0000000000000000e+00 5.0000000000000000e+00
-5.0000000000000000e+00 5.0000000000000000e+00
ITEM: ATOMS id type xs ys zs
1 1 0.558181 0.946137 0.62346
2 1 0.873121 0.364458 0.270066
3 1 0.452633 0.970365 0.0491506
4 1 0.343276 0.486767 0.859594
5 1 0.201343 0.883912 0.786987
6 1 0.348752 0.176288 0.45774
7 1 0.904296 0.43565 0.158758
8 1 0.293464 0.802508 0.400889
9 1 0.654942 0.68466 0.718225
10 1 0.303539 0.385282 0.865252
ITEM: TIMESTEP
31
ITEM: NUMBER OF ATOMS
10
ITEM: BOX BOUNDS ff ff ff
-5.0000000000000000e+00 5.0000000000000000e+00
-5.0000000000000000e+00 5.0000000000000000e+00
-5.0000000000000000e+00 5.0000000000000000e+00
ITEM: ATOMS id type xs ys zs
1 1 0.558189 0.946043 0.623484
2 1 0.87592 0.370854 0.260068
3 1 0.452631 0.970361 0.0491582
4 1 0.342927 0.485867 0.859636
5 1 0.201361 0.883902 0.786973
6 1 0.348753 0.176292 0.457745
7 1 0.901494 0.429255 0.168758
8 1 0.293479 0.802518 0.400906
9 1 0.654895 0.684737 0.718197
10 1 0.303898 0.386197 0.865196
ITEM: TIMESTEP
32
ITEM: NUMBER OF ATOMS
10
ITEM: BOX BOUNDS ff ff ff
-5.0000000000000000e+00 5.0000000000000000e+00
-5.0000000000000000e+00 5.0000000000000000e+00
-5.0000000000000000e+00 5.0000000000000000e+00
ITEM: ATOMS id type xs ys zs
1 1 0.55819 0.946033 0.623487
2 1 0.876155 0.371392 0.259228
3 1 0.452631 0.970361 0.049159
4 1 0.343136 0.486401 0.859605
5 1 0.201363 0.883901 0.786972
6 1 0.348753 0.176293 0.457746
7 1 0.901259 0.428718 0.169598
8 1 0.293481 0.802519 0.400907
9 1 0.65489 0.684745 0.718194
10 1 0.30369 0.385664 0.865225
ITEM: TIMESTEP
33
ITEM: NUMBER OF ATOMS
10
ITEM: BOX BOUNDS ff ff ff
-5.0000000000000000e+00 5.0000000000000000e+00
-5.0000000000000000e+00 5.0000000000000000e+00
-5.0000000000000000e+00 5.0000000000000000e+00
ITEM: ATOMS id type xs ys zs
1 1 0.55819 0.946027 0.623488
2 1 0.87592 0.370853 0.260069
3 1 0.45263 0.970361 0.0491595
4 1 0.343686 0.487806 0.859526
5 1 0.201364 0.8839 0.786971
6 1 0.348753 0.176293 0.457746
7 1 0.901495 0.429256 0.168756
8 1 0.293482 0.802519 0.400908
9 1 0.654887 0.68475 0.718192
10 1 0.30314 0.384261 0.865303
ITEM: TIMESTEP
34
ITEM: NUMBER OF ATOMS
10
ITEM: BOX BOUNDS ff ff ff
-5.0000000000000000e+00 5.0000000000000000e+00
-5.0000000000000000e+00 5.0000000000000000e+00
-5.0000000000000000e+00 5.0000000000000000e+00
ITEM: ATOMS id type xs ys zs
1 1 0.558191 0.946018 0.623491
2 1 0.875828 0.370644 0.260397
3 1 0.45263 0.970361 0.0491602
4 1 0.343836 0.488187 0.859504
5 1 0.201366 0.8839 0.78697
6 1 0.348753 0.176294 0.457746
7 1 0.901586 0.429465 0.168429
8 1 0.293483 0.80252 0.40091
9 1 0.654883 0.684757 0.71819
10 1 0.302992 0.383881 0.865323
ITEM: TIMESTEP
35
ITEM: NUMBER OF ATOMS
10
ITEM: BOX BOUNDS ff ff ff
-5.0000000000000000e+00 5.0000000000000000e+00
-5.0000000000000000e+00 5.0000000000000000e+00
-5.0000000000000000e+00 5.0000000000000000e+00
ITEM: ATOMS id type xs ys zs
1 1 0.558191 0.946013 0.623492
2 1 0.875824 0.370636 0.260409
3 1 0.45263 0.97036 0.0491606
4 1 0.343842 0.488201 0.859503
5 1 0.201366 0.883899 0.786969
6 1 0.348753 0.176294 0.457747
7 1 0.90159 0.429474 0.168416
8 1 0.293484 0.802521 0.400911
9 1 0.654881 0.684761 0.718188
10 1 0.302987 0.383867 0.865324
ITEM: TIMESTEP
36
ITEM: NUMBER OF ATOMS
10
ITEM: BOX BOUNDS ff ff ff
-5.0000000000000000e+00 5.0000000000000000e+00
-5.0000000000000000e+00 5.0000000000000000e+00
-5.0000000000000000e+00 5.0000000000000000e+00
ITEM: ATOMS id type xs ys zs
1 1 0.558193 0.945994 0.623497
2 1 0.875814 0.370613 0.260446
3 1 0.452629 0.97036 0.0491622
4 1 0.343859 0.488244 0.859499
5 1 0.20137 0.883897 0.786966
6 1 0.348753 0.176295 0.457748
7 1 0.9016 0.429497 0.168381
8 1 0.293487 0.802523 0.400914
9 1 0.654871 0.684777 0.718183
10 1 0.302971 0.383828 0.865325
ITEM: TIMESTEP
37
ITEM: NUMBER OF ATOMS
10
ITEM: BOX BOUNDS ff ff ff
-5.0000000000000000e+00 5.0000000000000000e+00
-5.0000000000000000e+00 5.0000000000000000e+00
-5.0000000000000000e+00 5.0000000000000000e+00
ITEM: ATOMS id type xs ys zs
1 1 0.558194 0.945985 0.623499
2 1 0.875817 0.370621 0.260433
3 1 0.452629 0.970359 0.0491628
4 1 0.343854 0.48823 0.859499
5 1 0.201372 0.883896 0.786965
6 1 0.348753 0.176295 0.457748
7 1 0.901596 0.429489 0.168393
8 1 0.293488 0.802524 0.400916
9 1 0.654867 0.684784 0.71818
10 1 0.302977 0.383842 0.865324
ITEM: TIMESTEP
38
ITEM: NUMBER OF ATOMS
10
ITEM: BOX BOUNDS ff ff ff
-5.0000000000000000e+00 5.0000000000000000e+00
-5.0000000000000000e+00 5.0000000000000000e+00
-5.0000000000000000e+00 5.0000000000000000e+00
ITEM: ATOMS id type xs ys zs
1 1 0.558197 0.945947 0.623509
2 1 0.875821 0.37063 0.26042
3 1 0.452628 0.970358 0.0491659
4 1 0.34385 0.488218 0.859497
5 1 0.201379 0.883892 0.78696
6 1 0.348753 0.176297 0.45775
7 1 0.901592 0.42948 0.168407
8 1 0.293495 0.802528 0.400922
9 1 0.654848 0.684815 0.718169
10 1 0.302985 0.383861 0.86532
ITEM: TIMESTEP
39
ITEM: NUMBER OF ATOMS
10
ITEM: BOX BOUNDS ff ff ff
-5.0000000000000000e+00 5.0000000000000000e+00
-5.0000000000000000e+00 5.0000000000000000e+00
-5.0000000000000000e+00 5.0000000000000000e+00
ITEM: ATOMS id type xs ys zs
1 1 0.558532 0.941884 0.624567
2 1 0.875741 0.370584 0.26056
3 1 0.452516 0.970208 0.0494919
4 1 0.344138 0.488653 0.859129
5 1 0.202138 0.88348 0.786382
6 1 0.348777 0.176487 0.457971
7 1 0.90159 0.429558 0.168331
8 1 0.294152 0.802947 0.401631
9 1 0.652834 0.688144 0.716977
10 1 0.303131 0.384079 0.86508
ITEM: TIMESTEP
40
ITEM: NUMBER OF ATOMS
10
ITEM: BOX BOUNDS ff ff ff
-5.0000000000000000e+00 5.0000000000000000e+00
-5.0000000000000000e+00 5.0000000000000000e+00
-5.0000000000000000e+00 5.0000000000000000e+00
ITEM: ATOMS id type xs ys zs
1 1 0.559359 0.931884 0.627172
2 1 0.875651 0.370717 0.260521
3 1 0.45224 0.969839 0.0502935
4 1 0.344674 0.489289 0.85825
5 1 0.204005 0.882467 0.78496
6 1 0.348836 0.176956 0.458516
7 1 0.901476 0.429507 0.168526
8 1 0.295768 0.803978 0.403374
9 1 0.647879 0.696338 0.714042
10 1 0.30366 0.385049 0.864465
ITEM: TIMESTEP
41
ITEM: NUMBER OF ATOMS
10
ITEM: BOX BOUNDS ff ff ff
-5.0000000000000000e+00 5.0000000000000000e+00
-5.0000000000000000e+00 5.0000000000000000e+00
-5.0000000000000000e+00 5.0000000000000000e+00
ITEM: ATOMS id type xs ys zs
1 1 0.560218 0.921884 0.62979
2 1 0.875479 0.370658 0.260781
3 1 0.451967 0.969475 0.0510855
4 1 0.345335 0.49025 0.857362
5 1 0.205852 0.881465 0.783553
6 1 0.348894 0.177419 0.459053
7 1 0.901448 0.429646 0.168421
8 1 0.297367 0.804997 0.4051
9 1 0.642937 0.704555 0.711097
10 1 0.304052 0.385677 0.863877
ITEM: TIMESTEP
42
ITEM: NUMBER OF ATOMS
10
ITEM: BOX BOUNDS ff ff ff
-5.0000000000000000e+00 5.0000000000000000e+00
-5.0000000000000000e+00 5.0000000000000000e+00
-5.0000000000000000e+00 5.0000000000000000e+00
ITEM: ATOMS id type xs ys zs
1 1 0.561079 0.911884 0.632409
2 1 0.875321 0.370633 0.260988
3 1 0.451694 0.969112 0.0518769
4 1 0.345971 0.491152 0.856478
5 1 0.207698 0.880463 0.782148
6 1 0.348951 0.177881 0.459591
7 1 0.901405 0.429751 0.168368
8 1 0.298965 0.806015 0.406824
9 1 0.637996 0.712773 0.708152
10 1 0.304466 0.386362 0.863285
ITEM: TIMESTEP
43
ITEM: NUMBER OF ATOMS
10
ITEM: BOX BOUNDS ff ff ff
-5.0000000000000000e+00 5.0000000000000000e+00
-5.0000000000000000e+00 5.0000000000000000e+00
-5.0000000000000000e+00 5.0000000000000000e+00
ITEM: ATOMS id type xs ys zs
1 1 0.561945 0.901884 0.635029
2 1 0.875184 0.370651 0.261126
3 1 0.451422 0.968748 0.0526673
4 1 0.346577 0.491977 0.8556
5 1 0.209541 0.879463 0.780745
6 1 0.349009 0.178343 0.460127
7 1 0.901343 0.429812 0.168385
8 1 0.300561 0.807032 0.408547
9 1 0.633056 0.720993 0.705205
10 1 0.30491 0.387122 0.86269
ITEM: TIMESTEP
44
ITEM: NUMBER OF ATOMS
10
ITEM: BOX BOUNDS ff ff ff
-5.0000000000000000e+00 5.0000000000000000e+00
-5.0000000000000000e+00 5.0000000000000000e+00
-5.0000000000000000e+00 5.0000000000000000e+00
ITEM: ATOMS id type xs ys zs
1 1 0.56284 0.891884 0.637662
2 1 0.875137 0.370871 0.260946
3 1 0.451153 0.968388 0.0534496
4 1 0.347037 0.492445 0.854754
5 1 0.211367 0.878473 0.779355
6 1 0.349066 0.1788 0.460659
7 1 0.901192 0.429671 0.168718
8 1 0.302141 0.808038 0.410252
9 1 0.628126 0.729232 0.702249
10 1 0.305489 0.388224 0.862077
ITEM: TIMESTEP
45
ITEM: NUMBER OF ATOMS
10
ITEM: BOX BOUNDS ff ff ff
-5.0000000000000000e+00 5.0000000000000000e+00
-5.0000000000000000e+00 5.0000000000000000e+00
-5.0000000000000000e+00 5.0000000000000000e+00
ITEM: ATOMS id type xs ys zs
1 1 0.563025 0.891401 0.637851
2 1 0.875184 0.370979 0.260776
3 1 0.451152 0.968388 0.0534516
4 1 0.346963 0.492259 0.854765
5 1 0.211373 0.878469 0.77935
6 1 0.349066 0.178802 0.46066
7 1 0.901144 0.429563 0.168887
8 1 0.302147 0.80804 0.410259
9 1 0.627928 0.729711 0.702058
10 1 0.305565 0.388414 0.862062
ITEM: TIMESTEP
46
ITEM: NUMBER OF ATOMS
10
ITEM: BOX BOUNDS ff ff ff
-5.0000000000000000e+00 5.0000000000000000e+00
-5.0000000000000000e+00 5.0000000000000000e+00
-5.0000000000000000e+00 5.0000000000000000e+00
ITEM: ATOMS id type xs ys zs
1 1 0.566844 0.881401 0.641754
2 1 0.874818 0.370168 0.262056
3 1 0.451139 0.968369 0.053492
4 1 0.347545 0.493718 0.854618
5 1 0.211506 0.8784 0.779255
6 1 0.349069 0.178826 0.460688
7 1 0.901501 0.430378 0.167614
8 1 0.30226 0.808085 0.410399
9 1 0.623841 0.739632 0.698114
10 1 0.305025 0.387049 0.862129
ITEM: TIMESTEP
47
ITEM: NUMBER OF ATOMS
10
ITEM: BOX BOUNDS ff ff ff
-5.0000000000000000e+00 5.0000000000000000e+00
-5.0000000000000000e+00 5.0000000000000000e+00
-5.0000000000000000e+00 5.0000000000000000e+00
ITEM: ATOMS id type xs ys zs
1 1 0.57067 0.871401 0.64566
2 1 0.874688 0.369891 0.262498
3 1 0.451127 0.968352 0.0535313
4 1 0.347755 0.494244 0.854539
5 1 0.211635 0.878332 0.779163
6 1 0.349072 0.178849 0.460715
7 1 0.901621 0.430659 0.167179
8 1 0.30237 0.80813 0.410535
9 1 0.619755 0.749555 0.694168
10 1 0.304856 0.386613 0.862132
ITEM: TIMESTEP
48
ITEM: NUMBER OF ATOMS
10
ITEM: BOX BOUNDS ff ff ff
-5.0000000000000000e+00 5.0000000000000000e+00
-5.0000000000000000e+00 5.0000000000000000e+00
-5.0000000000000000e+00 5.0000000000000000e+00
ITEM: ATOMS id type xs ys zs
1 1 0.574518 0.861401 0.649574
2 1 0.874912 0.370411 0.26169
3 1 0.451115 0.968336 0.0535664
4 1 0.347409 0.493376 0.854562
5 1 0.211751 0.878272 0.779081
6 1 0.349074 0.17887 0.460739
7 1 0.901388 0.430143 0.167994
8 1 0.302468 0.808169 0.410657
9 1 0.615674 0.759487 0.690218
10 1 0.305239 0.387562 0.862039
ITEM: TIMESTEP
49
ITEM: NUMBER OF ATOMS
10
ITEM: BOX BOUNDS ff ff ff
-5.0000000000000000e+00 5.0000000000000000e+00
-5.0000000000000000e+00 5.0000000000000000e+00
-5.0000000000000000e+00 5.0000000000000000e+00
ITEM: ATOMS id type xs ys zs
1 1 0.575396 0.85921 0.650446
2 1 0.875217 0.3711 0.260609
3 1 0.451115 0.968335 0.0535678
4 1 0.346938 0.492195 0.854644
5 1 0.211756 0.878269 0.779077
6 1 0.349074 0.178871 0.46074
7 1 0.901082 0.429454 0.169075
8 1 0.302472 0.80817 0.410662
9 1 0.614787 0.761676 0.689345
10 1 0.305711 0.388746 0.861955
ITEM: TIMESTEP
50
ITEM: NUMBER OF ATOMS
10
ITEM: BOX BOUNDS ff ff ff
-5.0000000000000000e+00 5.0000000000000000e+00
-5.0000000000000000e+00 5.0000000000000000e+00
-5.0000000000000000e+00 5.0000000000000000e+00
ITEM: ATOMS id type xs ys zs
1 1 0.575481 0.858991 0.650532
2 1 0.875188 0.371035 0.260711
3 1 0.451114 0.968335 0.0535687
4 1 0.346985 0.492313 0.854635
5 1 0.211759 0.878267 0.779075
6 1 0.349074 0.178872 0.460741
7 1 0.901111 0.429519 0.168972
8 1 0.302474 0.808171 0.410665
9 1 0.614696 0.761894 0.689258
10 1 0.305664 0.38863 0.861962
ITEM: TIMESTEP
51
ITEM: NUMBER OF ATOMS
10
ITEM: BOX BOUNDS ff ff ff
-5.0000000000000000e+00 5.0000000000000000e+00
-5.0000000000000000e+00 5.0000000000000000e+00
-5.0000000000000000e+00 5.0000000000000000e+00
ITEM: ATOMS id type xs ys zs
1 1 0.575418 0.859141 0.650471
2 1 0.875156 0.370961 0.260827
3 1 0.451114 0.968335 0.0535693
4 1 0.347036 0.492441 0.854625
5 1 0.211761 0.878266 0.779074
6 1 0.349074 0.178872 0.460742
7 1 0.901144 0.429593 0.168857
8 1 0.302476 0.808171 0.410667
9 1 0.614755 0.761743 0.689318
10 1 0.305614 0.388504 0.861971
ITEM: TIMESTEP
52
ITEM: NUMBER OF ATOMS
10
ITEM: BOX BOUNDS ff ff ff
-5.0000000000000000e+00 5.0000000000000000e+00
-5.0000000000000000e+00 5.0000000000000000e+00
-5.0000000000000000e+00 5.0000000000000000e+00
ITEM: ATOMS id type xs ys zs
1 1 0.575379 0.859231 0.650435
2 1 0.875144 0.370935 0.260868
3 1 0.451114 0.968334 0.0535701
4 1 0.347054 0.492487 0.854621
5 1 0.211763 0.878264 0.779072
6 1 0.349074 0.178873 0.460742
7 1 0.901155 0.429619 0.168816
8 1 0.302478 0.808172 0.410669
9 1 0.61479 0.761652 0.689354
10 1 0.305596 0.388459 0.861973
ITEM: TIMESTEP
53
ITEM: NUMBER OF ATOMS
10
ITEM: BOX BOUNDS ff ff ff
-5.0000000000000000e+00 5.0000000000000000e+00
-5.0000000000000000e+00 5.0000000000000000e+00
-5.0000000000000000e+00 5.0000000000000000e+00
ITEM: ATOMS id type xs ys zs
1 1 0.575362 0.859258 0.650422
2 1 0.87514 0.370926 0.260882
3 1 0.451114 0.968334 0.0535714
4 1 0.34706 0.492504 0.854618
5 1 0.211768 0.878262 0.779069
6 1 0.349074 0.178873 0.460743
7 1 0.901159 0.429628 0.168802
8 1 0.302482 0.808173 0.410674
9 1 0.614798 0.761623 0.689365
10 1 0.305591 0.388445 0.861973
ITEM: TIMESTEP
54
ITEM: NUMBER OF ATOMS
10
ITEM: BOX BOUNDS ff ff ff
-5.0000000000000000e+00 5.0000000000000000e+00
-5.0000000000000000e+00 5.0000000000000000e+00
-5.0000000000000000e+00 5.0000000000000000e+00
ITEM: ATOMS id type xs ys zs
1 1 0.575363 0.859248 0.650425
2 1 0.875141 0.370929 0.260878
3 1 0.451113 0.968333 0.0535723
4 1 0.347059 0.4925 0.854618
5 1 0.211771 0.87826 0.779067