ITEM: TIMESTEP
0
ITEM: NUMBER OF ATOMS
13
ITEM: BOX BOUNDS ff ff ff
-5.0000000000000000e+00 5.0000000000000000e+00
-5.0000000000000000e+00 5.0000000000000000e+00
-5.0000000000000000e+00 5.0000000000000000e+00
ITEM: ATOMS id type xs ys zs
1 1 0.546605 0.783294 0.822933
2 1 0.0296554 0.418765 0.188204
3 1 0.143569 0.965735 0.105501
4 1 0.154875 0.978319 0.610313
5 1 0.52584 0.792724 0.311496
6 1 0.320698 0.977934 0.128631
7 1 0.902767 0.798962 0.151989
8 1 0.486182 0.264204 0.483151
9 1 0.327227 0.705094 0.515965
10 1 0.818136 0.416103 0.447981
11 1 0.22387 0.580875 0.761347
12 1 0.965484 0.893756 0.357261
13 1 0.485391 0.959118 0.902561
ITEM: TIMESTEP
1
ITEM: NUMBER OF ATOMS
13
ITEM: BOX BOUNDS ff ff ff
-5.0000000000000000e+00 5.0000000000000000e+00
-5.0000000000000000e+00 5.0000000000000000e+00
-5.0000000000000000e+00 5.0000000000000000e+00
ITEM: ATOMS id type xs ys zs
1 1 0.545195 0.787089 0.824603
2 1 0.0296651 0.418774 0.188211
3 1 0.153569 0.966411 0.106825
4 1 0.154975 0.978184 0.610283
5 1 0.525582 0.792716 0.311625
6 1 0.310801 0.977155 0.127425
7 1 0.903159 0.799601 0.153409
8 1 0.486236 0.264258 0.483148
9 1 0.327278 0.705155 0.516101
10 1 0.818065 0.416098 0.447981
11 1 0.224038 0.581067 0.761061
12 1 0.965035 0.893099 0.355863
13 1 0.486701 0.955275 0.9008
ITEM: TIMESTEP
2
ITEM: NUMBER OF ATOMS
13
ITEM: BOX BOUNDS ff ff ff
-5.0000000000000000e+00 5.0000000000000000e+00
-5.0000000000000000e+00 5.0000000000000000e+00
-5.0000000000000000e+00 5.0000000000000000e+00
ITEM: ATOMS id type xs ys zs
1 1 0.544055 0.79018 0.825968
2 1 0.0296722 0.418781 0.188216
3 1 0.163569 0.967088 0.108146
4 1 0.155048 0.978086 0.610261
5 1 0.525396 0.792707 0.311721
6 1 0.300874 0.976407 0.126187
7 1 0.903455 0.800083 0.154479
8 1 0.486275 0.264298 0.483146
9 1 0.327316 0.7052 0.516201
10 1 0.818014 0.416095 0.447981
11 1 0.22416 0.581208 0.760852
12 1 0.964697 0.892603 0.354808
13 1 0.487769 0.952148 0.899369
ITEM: TIMESTEP
3
ITEM: NUMBER OF ATOMS
13
ITEM: BOX BOUNDS ff ff ff
-5.0000000000000000e+00 5.0000000000000000e+00
-5.0000000000000000e+00 5.0000000000000000e+00
-5.0000000000000000e+00 5.0000000000000000e+00
ITEM: ATOMS id type xs ys zs
1 1 0.543113 0.792743 0.827102
2 1 0.0296776 0.418786 0.18822
3 1 0.173569 0.967764 0.109466
4 1 0.155105 0.978009 0.610243
5 1 0.525252 0.792699 0.311797
6 1 0.29093 0.975676 0.12493
7 1 0.903689 0.800463 0.155322
8 1 0.486305 0.264329 0.483144
9 1 0.327344 0.705235 0.516279
10 1 0.817973 0.416092 0.447981
11 1 0.224255 0.581318 0.760689
12 1 0.964431 0.892213 0.353977
13 1 0.488654 0.949558 0.898184
ITEM: TIMESTEP
4
ITEM: NUMBER OF ATOMS
13
ITEM: BOX BOUNDS ff ff ff
-5.0000000000000000e+00 5.0000000000000000e+00
-5.0000000000000000e+00 5.0000000000000000e+00
-5.0000000000000000e+00 5.0000000000000000e+00
ITEM: ATOMS id type xs ys zs
1 1 0.542905 0.793317 0.827358
2 1 0.0296786 0.418786 0.188221
3 1 0.176588 0.967967 0.109865
4 1 0.155115 0.977996 0.61024
5 1 0.525228 0.792697 0.311811
6 1 0.28792 0.975465 0.124542
7 1 0.903733 0.800533 0.155477
8 1 0.48631 0.264334 0.483143
9 1 0.327349 0.705241 0.516292
10 1 0.817967 0.416091 0.447981
11 1 0.224272 0.581337 0.760661
12 1 0.964382 0.892141 0.353824
13 1 0.488853 0.948979 0.897919
ITEM: TIMESTEP
5
ITEM: NUMBER OF ATOMS
13
ITEM: BOX BOUNDS ff ff ff
-5.0000000000000000e+00 5.0000000000000000e+00
-5.0000000000000000e+00 5.0000000000000000e+00
-5.0000000000000000e+00 5.0000000000000000e+00
ITEM: ATOMS id type xs ys zs
1 1 0.54166 0.796805 0.82892
2 1 0.0296825 0.41879 0.188224
3 1 0.178346 0.968079 0.110106
4 1 0.155156 0.977941 0.610228
5 1 0.525133 0.792681 0.311875
6 1 0.286194 0.975324 0.124338
7 1 0.903937 0.800859 0.156198
8 1 0.486332 0.264356 0.483142
9 1 0.327368 0.705265 0.516348
10 1 0.817938 0.416089 0.447981
11 1 0.22434 0.581416 0.760543
12 1 0.964155 0.891807 0.353111
13 1 0.490059 0.945472 0.896321
ITEM: TIMESTEP
6
ITEM: NUMBER OF ATOMS
13
ITEM: BOX BOUNDS ff ff ff
-5.0000000000000000e+00 5.0000000000000000e+00
-5.0000000000000000e+00 5.0000000000000000e+00
-5.0000000000000000e+00 5.0000000000000000e+00
ITEM: ATOMS id type xs ys zs
1 1 0.541601 0.796972 0.828996
2 1 0.0296827 0.41879 0.188224
3 1 0.177413 0.968016 0.109983
4 1 0.155157 0.977939 0.610227
5 1 0.525129 0.792681 0.311877
6 1 0.287128 0.975386 0.124462
7 1 0.903944 0.800871 0.156225
8 1 0.486332 0.264356 0.483142
9 1 0.327369 0.705266 0.51635
10 1 0.817937 0.416089 0.447981
11 1 0.224342 0.581419 0.760539
12 1 0.964146 0.891794 0.353084
13 1 0.490117 0.945304 0.896244
ITEM: TIMESTEP
7
ITEM: NUMBER OF ATOMS
13
ITEM: BOX BOUNDS ff ff ff
-5.0000000000000000e+00 5.0000000000000000e+00
-5.0000000000000000e+00 5.0000000000000000e+00
-5.0000000000000000e+00 5.0000000000000000e+00
ITEM: ATOMS id type xs ys zs
1 1 0.541439 0.797428 0.829201
2 1 0.029683 0.41879 0.188224
3 1 0.176547 0.967957 0.10987
4 1 0.155161 0.977934 0.610226
5 1 0.52512 0.792679 0.311883
6 1 0.287998 0.975442 0.124579
7 1 0.903965 0.800904 0.156297
8 1 0.486334 0.264358 0.483142
9 1 0.32737 0.705269 0.516356
10 1 0.817934 0.416089 0.447981
11 1 0.224348 0.581427 0.760528
12 1 0.964124 0.891761 0.353012
13 1 0.490275 0.944846 0.896036
ITEM: TIMESTEP
8
ITEM: NUMBER OF ATOMS
13
ITEM: BOX BOUNDS ff ff ff
-5.0000000000000000e+00 5.0000000000000000e+00
-5.0000000000000000e+00 5.0000000000000000e+00
-5.0000000000000000e+00 5.0000000000000000e+00
ITEM: ATOMS id type xs ys zs
1 1 0.537916 0.807388 0.83368
2 1 0.029691 0.418798 0.18823
3 1 0.176711 0.967955 0.109909
4 1 0.155244 0.977822 0.610201
5 1 0.524927 0.792648 0.312012
6 1 0.287899 0.975386 0.124614
7 1 0.904401 0.8016 0.157833
8 1 0.486378 0.264402 0.483139
9 1 0.327408 0.705318 0.516469
10 1 0.817877 0.416085 0.447981
11 1 0.224485 0.581588 0.760289
12 1 0.963641 0.89105 0.351493
13 1 0.493721 0.934846 0.891484
ITEM: TIMESTEP
9
ITEM: NUMBER OF ATOMS
13
ITEM: BOX BOUNDS ff ff ff
-5.0000000000000000e+00 5.0000000000000000e+00
-5.0000000000000000e+00 5.0000000000000000e+00
-5.0000000000000000e+00 5.0000000000000000e+00
ITEM: ATOMS id type xs ys zs
1 1 0.534407 0.817357 0.838173
2 1 0.029697 0.418803 0.188234
3 1 0.177121 0.967972 0.109977
4 1 0.155307 0.977737 0.610182
5 1 0.524781 0.792624 0.31211
6 1 0.287539 0.975324 0.124603
7 1 0.904741 0.802142 0.159029
8 1 0.486411 0.264436 0.483137
9 1 0.327435 0.705356 0.516555
10 1 0.817833 0.416082 0.447981
11 1 0.224589 0.58171 0.760108
12 1 0.963266 0.890496 0.35031
13 1 0.497172 0.924846 0.886936
ITEM: TIMESTEP
10
ITEM: NUMBER OF ATOMS
13
ITEM: BOX BOUNDS ff ff ff
-5.0000000000000000e+00 5.0000000000000000e+00
-5.0000000000000000e+00 5.0000000000000000e+00
-5.0000000000000000e+00 5.0000000000000000e+00
ITEM: ATOMS id type xs ys zs
1 1 0.532658 0.822345 0.840425
2 1 0.0296994 0.418805 0.188236
3 1 0.176977 0.967958 0.109963
4 1 0.155332 0.977704 0.610174
5 1 0.524724 0.792615 0.312148
6 1 0.287702 0.97532 0.124638
7 1 0.904877 0.802357 0.159504
8 1 0.486424 0.264449 0.483136
9 1 0.327446 0.70537 0.516588
10 1 0.817816 0.41608 0.447981
11 1 0.224629 0.581758 0.760037
12 1 0.963117 0.890276 0.34984
13 1 0.498898 0.919846 0.884663
ITEM: TIMESTEP
11
ITEM: NUMBER OF ATOMS
13
ITEM: BOX BOUNDS ff ff ff
-5.0000000000000000e+00 5.0000000000000000e+00
-5.0000000000000000e+00 5.0000000000000000e+00
-5.0000000000000000e+00 5.0000000000000000e+00
ITEM: ATOMS id type xs ys zs
1 1 0.532655 0.82235 0.840426
2 1 0.0296996 0.418805 0.188236
3 1 0.176865 0.967951 0.109949
4 1 0.155334 0.977701 0.610174
5 1 0.524718 0.792614 0.312152
6 1 0.287816 0.975326 0.124655
7 1 0.904893 0.802383 0.15956
8 1 0.486425 0.26445 0.483136
9 1 0.327447 0.705372 0.516592
10 1 0.817814 0.41608 0.447981
11 1 0.224633 0.581762 0.76003
12 1 0.963099 0.89025 0.349785
13 1 0.498899 0.91984 0.88466
ITEM: TIMESTEP
12
ITEM: NUMBER OF ATOMS
13
ITEM: BOX BOUNDS ff ff ff
-5.0000000000000000e+00 5.0000000000000000e+00
-5.0000000000000000e+00 5.0000000000000000e+00
-5.0000000000000000e+00 5.0000000000000000e+00
ITEM: ATOMS id type xs ys zs
1 1 0.532643 0.822355 0.840423
2 1 0.029701 0.418806 0.188237
3 1 0.176694 0.967937 0.10993
4 1 0.155349 0.977681 0.610169
5 1 0.524684 0.792608 0.312175
6 1 0.287998 0.97533 0.124687
7 1 0.90499 0.802535 0.159895
8 1 0.486433 0.264458 0.483135
9 1 0.327453 0.705381 0.516611
10 1 0.817804 0.416079 0.447981
11 1 0.224657 0.581791 0.759988
12 1 0.962994 0.890095 0.349452
13 1 0.498899 0.919827 0.884651
ITEM: TIMESTEP
13
ITEM: NUMBER OF ATOMS
13
ITEM: BOX BOUNDS ff ff ff
-5.0000000000000000e+00 5.0000000000000000e+00
-5.0000000000000000e+00 5.0000000000000000e+00
-5.0000000000000000e+00 5.0000000000000000e+00
ITEM: ATOMS id type xs ys zs
1 1 0.532414 0.82217 0.840176
2 1 0.0297418 0.418843 0.188267
3 1 0.178129 0.967963 0.110213
4 1 0.155785 0.977099 0.61004
5 1 0.523686 0.792446 0.312844
6 1 0.2869 0.975002 0.124789
7 1 0.907878 0.807084 0.169895
8 1 0.486658 0.264683 0.483119
9 1 0.327621 0.705636 0.517194
10 1 0.817508 0.416057 0.447978
11 1 0.225351 0.582633 0.758743
12 1 0.959867 0.885465 0.339538
13 1 0.49876 0.919802 0.884539
ITEM: TIMESTEP
14
ITEM: NUMBER OF ATOMS
13
ITEM: BOX BOUNDS ff ff ff
-5.0000000000000000e+00 5.0000000000000000e+00
-5.0000000000000000e+00 5.0000000000000000e+00
-5.0000000000000000e+00 5.0000000000000000e+00
ITEM: ATOMS id type xs ys zs
1 1 0.532177 0.822015 0.839943
2 1 0.0297824 0.418879 0.188296
3 1 0.178933 0.967949 0.110411
4 1 0.156218 0.976519 0.609911
5 1 0.522692 0.792285 0.313511
6 1 0.28643 0.974716 0.124973
7 1 0.910768 0.811634 0.179895
8 1 0.486882 0.264907 0.483104
9 1 0.327789 0.705891 0.517774
10 1 0.817213 0.416035 0.447976
11 1 0.226043 0.583471 0.757502
12 1 0.95674 0.880836 0.329623
13 1 0.498632 0.919748 0.884414
ITEM: TIMESTEP
15
ITEM: NUMBER OF ATOMS
13
ITEM: BOX BOUNDS ff ff ff
-5.0000000000000000e+00 5.0000000000000000e+00
-5.0000000000000000e+00 5.0000000000000000e+00
-5.0000000000000000e+00 5.0000000000000000e+00
ITEM: ATOMS id type xs ys zs
1 1 0.53193 0.821894 0.839728
2 1 0.0298227 0.418915 0.188325
3 1 0.178945 0.967885 0.110501
4 1 0.156648 0.975945 0.609784
5 1 0.521708 0.792126 0.314172
6 1 0.28675 0.974482 0.125262
7 1 0.913659 0.816184 0.189895
8 1 0.487103 0.265129 0.483088
9 1 0.327955 0.706143 0.518349
10 1 0.81692 0.416013 0.447974
11 1 0.226727 0.584301 0.756273
12 1 0.953613 0.876206 0.319707
13 1 0.498517 0.919661 0.884276
ITEM: TIMESTEP
16
ITEM: NUMBER OF ATOMS
13
ITEM: BOX BOUNDS ff ff ff
-5.0000000000000000e+00 5.0000000000000000e+00
-5.0000000000000000e+00 5.0000000000000000e+00
-5.0000000000000000e+00 5.0000000000000000e+00
ITEM: ATOMS id type xs ys zs
1 1 0.531886 0.822006 0.839776
2 1 0.0298235 0.418916 0.188326
3 1 0.176749 0.96775 0.110202
4 1 0.156656 0.975934 0.609781
5 1 0.521689 0.792122 0.314185
6 1 0.288953 0.974612 0.125568
7 1 0.91398 0.81667 0.19095
8 1 0.487108 0.265134 0.483088
9 1 0.327958 0.706147 0.518361
10 1 0.816915 0.416012 0.447974
11 1 0.226741 0.584318 0.756249
12 1 0.953287 0.875718 0.318653
13 1 0.498554 0.919545 0.884221
ITEM: TIMESTEP
17
ITEM: NUMBER OF ATOMS
13
ITEM: BOX BOUNDS ff ff ff
-5.0000000000000000e+00 5.0000000000000000e+00
-5.0000000000000000e+00 5.0000000000000000e+00
-5.0000000000000000e+00 5.0000000000000000e+00
ITEM: ATOMS id type xs ys zs
1 1 0.531776 0.82224 0.839866
2 1 0.0298275 0.41892 0.188329
3 1 0.176417 0.967722 0.110166
4 1 0.156701 0.975873 0.609768
5 1 0.521587 0.792106 0.314256
6 1 0.289318 0.974608 0.125643
7 1 0.917041 0.821287 0.20095
8 1 0.48713 0.265156 0.483086
9 1 0.327971 0.706169 0.518429
10 1 0.816885 0.41601 0.447973
11 1 0.226817 0.58441 0.756112
12 1 0.950202 0.871093 0.308661
13 1 0.498626 0.919289 0.884094
ITEM: TIMESTEP
18
ITEM: NUMBER OF ATOMS
13
ITEM: BOX BOUNDS ff ff ff
-5.0000000000000000e+00 5.0000000000000000e+00
-5.0000000000000000e+00 5.0000000000000000e+00
-5.0000000000000000e+00 5.0000000000000000e+00
ITEM: ATOMS id type xs ys zs
1 1 0.53187 0.821933 0.83972
2 1 0.0298289 0.418921 0.18833
3 1 0.177459 0.967784 0.110312
4 1 0.156717 0.975852 0.609764
5 1 0.52155 0.7921 0.314282
6 1 0.288289 0.974536 0.125511
7 1 0.918574 0.823596 0.20595
8 1 0.487139 0.265164 0.483086
9 1 0.327975 0.706177 0.518453
10 1 0.816874 0.41601 0.447973
11 1 0.226844 0.584443 0.756062
12 1 0.94866 0.86878 0.303664
13 1 0.498519 0.919589 0.884227
ITEM: TIMESTEP
19
ITEM: NUMBER OF ATOMS
13
ITEM: BOX BOUNDS ff ff ff
-5.0000000000000000e+00 5.0000000000000000e+00
-5.0000000000000000e+00 5.0000000000000000e+00
-5.0000000000000000e+00 5.0000000000000000e+00
ITEM: ATOMS id type xs ys zs
1 1 0.531858 0.821965 0.839733
2 1 0.0298291 0.418921 0.18833
3 1 0.17741 0.96778 0.110306
4 1 0.156719 0.975849 0.609763
5 1 0.521546 0.792099 0.314285
6 1 0.288339 0.974538 0.125519
7 1 0.918537 0.823541 0.205831
8 1 0.48714 0.265165 0.483086
9 1 0.327976 0.706178 0.518456
10 1 0.816873 0.41601 0.447973
11 1 0.226847 0.584447 0.756056
12 1 0.948696 0.868835 0.303783
13 1 0.498529 0.919555 0.884212
ITEM: TIMESTEP
20
ITEM: NUMBER OF ATOMS
13
ITEM: BOX BOUNDS ff ff ff
-5.0000000000000000e+00 5.0000000000000000e+00
-5.0000000000000000e+00 5.0000000000000000e+00
-5.0000000000000000e+00 5.0000000000000000e+00
ITEM: ATOMS id type xs ys zs
1 1 0.53185 0.821984 0.839741
2 1 0.0298293 0.418921 0.18833
3 1 0.177382 0.967778 0.110303
4 1 0.156722 0.975845 0.609762
5 1 0.521539 0.792098 0.31429
6 1 0.288369 0.974539 0.125525
7 1 0.918516 0.82351 0.205767
8 1 0.487141 0.265167 0.483086
9 1 0.327977 0.706179 0.518461
10 1 0.816871 0.41601 0.447973
11 1 0.226852 0.584453 0.756047
12 1 0.948715 0.868865 0.303848
13 1 0.498535 0.919535 0.884202
ITEM: TIMESTEP
21
ITEM: NUMBER OF ATOMS
13
ITEM: BOX BOUNDS ff ff ff
-5.0000000000000000e+00 5.0000000000000000e+00
-5.0000000000000000e+00 5.0000000000000000e+00
-5.0000000000000000e+00 5.0000000000000000e+00
ITEM: ATOMS id type xs ys zs
1 1 0.531841 0.821995 0.839744
2 1 0.02983 0.418922 0.188331
3 1 0.177367 0.967776 0.110302
4 1 0.156729 0.975836 0.60976
5 1 0.521523 0.792095 0.314301
6 1 0.288389 0.974536 0.125532
7 1 0.918502 0.823492 0.205729
8 1 0.487145 0.26517 0.483085
9 1 0.327979 0.706182 0.518472
10 1 0.816867 0.416009 0.447973
11 1 0.226864 0.584468 0.756025
12 1 0.948725 0.868881 0.303887
13 1 0.498538 0.919521 0.884193
ITEM: TIMESTEP
22
ITEM: NUMBER OF ATOMS
13
ITEM: BOX BOUNDS ff ff ff
-5.0000000000000000e+00 5.0000000000000000e+00
-5.0000000000000000e+00 5.0000000000000000e+00
-5.0000000000000000e+00 5.0000000000000000e+00
ITEM: ATOMS id type xs ys zs
1 1 0.531821 0.821996 0.839733
2 1 0.0298325 0.418924 0.188333
3 1 0.177366 0.967772 0.110308
4 1 0.156758 0.975797 0.609752
5 1 0.521458 0.792085 0.314348
6 1 0.288411 0.974521 0.125551
7 1 0.918485 0.823477 0.205706
8 1 0.487159 0.265185 0.483084
9 1 0.327986 0.706196 0.518517
10 1 0.816848 0.416008 0.447973
11 1 0.226914 0.584528 0.755935
12 1 0.948726 0.868891 0.303915
13 1 0.498534 0.919505 0.88418
ITEM: TIMESTEP
23
ITEM: NUMBER OF ATOMS
13
ITEM: BOX BOUNDS ff ff ff
-5.0000000000000000e+00 5.0000000000000000e+00
-5.0000000000000000e+00 5.0000000000000000e+00
-5.0000000000000000e+00 5.0000000000000000e+00
ITEM: ATOMS id type xs ys zs
1 1 0.5318 0.821968 0.839703
2 1 0.0298366 0.418928 0.188336
3 1 0.177406 0.967767 0.110323
4 1 0.156805 0.975733 0.609738
5 1 0.521352 0.792068 0.314423
6 1 0.288406 0.974494 0.125576
7 1 0.918484 0.823494 0.205759
8 1 0.487183 0.265208 0.483083
9 1 0.327998 0.706217 0.51859
10 1 0.816817 0.416006 0.447973
11 1 0.226994 0.584626 0.755789
12 1 0.948701 0.868864 0.303871
13 1 0.498516 0.919511 0.884172
ITEM: TIMESTEP
24
ITEM: NUMBER OF ATOMS
13
ITEM: BOX BOUNDS ff ff ff
-5.0000000000000000e+00 5.0000000000000000e+00
-5.0000000000000000e+00 5.0000000000000000e+00
-5.0000000000000000e+00 5.0000000000000000e+00
ITEM: ATOMS id type xs ys zs
1 1 0.53142 0.82189 0.839442
2 1 0.0298901 0.418976 0.188374
3 1 0.177558 0.967685 0.110467
4 1 0.157414 0.974914 0.609561
5 1 0.519979 0.791844 0.3154
6 1 0.288708 0.974167 0.125954
7 1 0.918242 0.823361 0.205679
8 1 0.48749 0.265511 0.483061
9 1 0.328153 0.706489 0.519547
10 1 0.816419 0.415983 0.447968
11 1 0.228036 0.585897 0.753888
12 1 0.948601 0.868869 0.304054
13 1 0.498389 0.919297 0.883938
ITEM: TIMESTEP
25
ITEM: NUMBER OF ATOMS
13
ITEM: BOX BOUNDS ff ff ff
-5.0000000000000000e+00 5.0000000000000000e+00
-5.0000000000000000e+00 5.0000000000000000e+00
-5.0000000000000000e+00 5.0000000000000000e+00
ITEM: ATOMS id type xs ys zs
1 1 0.529519 0.821194 0.837939
2 1 0.0301711 0.419228 0.188578
3 1 0.178642 0.967269 0.111268
4 1 0.160616 0.970606 0.60863
5 1 0.512758 0.790667 0.32054
6 1 0.290006 0.972434 0.127905
7 1 0.917122 0.822887 0.205747
8 1 0.489107 0.267104 0.482948
9 1 0.328968 0.707921 0.52458
10 1 0.814325 0.415862 0.447943
11 1 0.233519 0.592583 0.743888
12 1 0.947925 0.868671 0.304529
13 1 0.497622 0.918459 0.882838
ITEM: TIMESTEP
26
ITEM: NUMBER OF ATOMS
13
ITEM: BOX BOUNDS ff ff ff
-5.0000000000000000e+00 5.0000000000000000e+00
-5.0000000000000000e+00 5.0000000000000000e+00
-5.0000000000000000e+00 5.0000000000000000e+00
ITEM: ATOMS id type xs ys zs
1 1 0.527673 0.820331 0.83636
2 1 0.0304519 0.41948 0.188781
3 1 0.179898 0.966862 0.112093
4 1 0.163817 0.9663 0.607699
5 1 0.505539 0.78949 0.325679
6 1 0.29113 0.970694 0.129828
7 1 0.91609 0.822545 0.206098
8 1 0.490723 0.268696 0.482836
9 1 0.32978 0.709349 0.529615
10 1 0.812232 0.41574 0.447919
11 1 0.239001 0.599268 0.733888
12 1 0.947163 0.868342 0.304722
13 1 0.496801 0.917788 0.881816
ITEM: TIMESTEP
27
ITEM: NUMBER OF ATOMS
13
ITEM: BOX BOUNDS ff ff ff
-5.0000000000000000e+00 5.0000000000000000e+00
-5.0000000000000000e+00 5.0000000000000000e+00
-5.0000000000000000e+00 5.0000000000000000e+00
ITEM: ATOMS id type xs ys zs
1 1 0.527763 0.820029 0.836216
2 1 0.0304525 0.41948 0.188782
3 1 0.180291 0.966874 0.112157
4 1 0.163826 0.966287 0.607697
5 1 0.505518 0.789486 0.325695
6 1 0.290743 0.970676 0.129771
7 1 0.916283 0.822831 0.206716
8 1 0.490727 0.2687 0.482835
9 1 0.32977 0.70934 0.529652
10 1 0.812227 0.415739 0.447919
11 1 0.239028 0.599301 0.733836
12 1 0.946967 0.868054 0.304104
13 1 0.496704 0.918086 0.881953
ITEM: TIMESTEP
28
ITEM: NUMBER OF ATOMS
13
ITEM: BOX BOUNDS ff ff ff
-5.0000000000000000e+00 5.0000000000000000e+00
-5.0000000000000000e+00 5.0000000000000000e+00
-5.0000000000000000e+00 5.0000000000000000e+00
ITEM: ATOMS id type xs ys zs
1 1 0.527697 0.820222 0.836303
2 1 0.030453 0.419481 0.188782
3 1 0.180049 0.966865 0.11212
4 1 0.163833 0.966276 0.607695
5 1 0.505502 0.789483 0.325708
6 1 0.29099 0.970681 0.129814
7 1 0.916163 0.822656 0.20634
8 1 0.49073 0.268703 0.482835
9 1 0.329762 0.709333 0.529682
10 1 0.812223 0.415739 0.447919
11 1 0.239049 0.599327 0.733795
12 1 0.947084 0.868229 0.304481
13 1 0.496764 0.91789 0.88186
ITEM: TIMESTEP
29
ITEM: NUMBER OF ATOMS
13
ITEM: BOX BOUNDS ff ff ff
-5.0000000000000000e+00 5.0000000000000000e+00
-5.0000000000000000e+00 5.0000000000000000e+00
-5.0000000000000000e+00 5.0000000000000000e+00
ITEM: ATOMS id type xs ys zs
1 1 0.527722 0.820126 0.836255
2 1 0.0304535 0.419481 0.188783
3 1 0.180184 0.966868 0.112143
4 1 0.163842 0.966264 0.607693
5 1 0.505482 0.789479 0.325723
6 1 0.29086 0.970673 0.129797
7 1 0.916228 0.822753 0.206552
8 1 0.490734 0.268706 0.482835
9 1 0.329753 0.709324 0.529717
10 1 0.812218 0.415738 0.447919
11 1 0.239074 0.599358 0.733746
12 1 0.947016 0.86813 0.30427
13 1 0.496733 0.917982 0.881902
ITEM: TIMESTEP
30
ITEM: NUMBER OF ATOMS
13
ITEM: BOX BOUNDS ff ff ff
-5.0000000000000000e+00 5.0000000000000000e+00
-5.0000000000000000e+00 5.0000000000000000e+00
-5.0000000000000000e+00 5.0000000000000000e+00
ITEM: ATOMS id type xs ys zs
1 1 0.527692 0.820199 0.836286
2 1 0.0304541 0.419482 0.188783
3 1 0.180082 0.966864 0.112128
4 1 0.163852 0.96625 0.60769
5 1 0.50546 0.789475 0.325741
6 1 0.290967 0.970672 0.129819
7 1 0.916174 0.822675 0.206387
8 1 0.490739 0.26871 0.482834
9 1 0.329742 0.709314 0.529757
10 1 0.812212 0.415738 0.447919
11 1 0.239102 0.599394 0.733689
12 1 0.947067 0.868206 0.304437
13 1 0.496754 0.917904 0.881863
ITEM: TIMESTEP
31
ITEM: NUMBER OF ATOMS
13
ITEM: BOX BOUNDS ff ff ff
-5.0000000000000000e+00 5.0000000000000000e+00
-5.0000000000000000e+00 5.0000000000000000e+00
-5.0000000000000000e+00 5.0000000000000000e+00
ITEM: ATOMS id type xs ys zs
1 1 0.52771 0.820122 0.836246
2 1 0.0304548 0.419482 0.188784
3 1 0.180189 0.966866 0.112147
4 1 0.163863 0.966236 0.607688
5 1 0.505437 0.789471 0.325759
6 1 0.290867 0.970663 0.129808
7 1 0.916223 0.82275 0.206551
8 1 0.490743 0.268715 0.482834
9 1 0.32973 0.709304 0.5298
10 1 0.812207 0.415737 0.447919
11 1 0.239132 0.599431 0.73363
12 1 0.947014 0.86813 0.304274
13 1 0.496729 0.917976 0.881895
ITEM: TIMESTEP
32
ITEM: NUMBER OF ATOMS
13
ITEM: BOX BOUNDS ff ff ff
-5.0000000000000000e+00 5.0000000000000000e+00
-5.0000000000000000e+00 5.0000000000000000e+00
-5.0000000000000000e+00 5.0000000000000000e+00
ITEM: ATOMS id type xs ys zs
1 1 0.527681 0.820195 0.836276
2 1 0.0304554 0.419483 0.188784
3 1 0.180088 0.966862 0.112133
4 1 0.163873 0.966221 0.607685
5 1 0.505415 0.789467 0.325777
6 1 0.290974 0.970662 0.12983
7 1 0.91617 0.822673 0.206387
8 1 0.490748 0.268719 0.482834
9 1 0.329719 0.709293 0.529841
10 1 0.812201 0.415736 0.447919
11 1 0.239162 0.599468 0.733573
12 1 0.947065 0.868205 0.304439
13 1 0.49675 0.917899 0.881857
ITEM: TIMESTEP
33
ITEM: NUMBER OF ATOMS
13
ITEM: BOX BOUNDS ff ff ff
-5.0000000000000000e+00 5.0000000000000000e+00
-5.0000000000000000e+00 5.0000000000000000e+00
-5.0000000000000000e+00 5.0000000000000000e+00
ITEM: ATOMS id type xs ys zs
1 1 0.527699 0.820117 0.836236
2 1 0.0304561 0.419484 0.188784
3 1 0.180196 0.966864 0.112151
4 1 0.163883 0.966207 0.607683
5 1 0.505391 0.789463 0.325795
6 1 0.290872 0.970654 0.129819
7 1 0.91622 0.822749 0.206554
8 1 0.490752 0.268723 0.482833
9 1 0.329707 0.709282 0.529884
10 1 0.812195 0.415736 0.447919
11 1 0.239192 0.599505 0.733513
12 1 0.947011 0.868128 0.304274
13 1 0.496724 0.917972 0.881889
ITEM: TIMESTEP
34
ITEM: NUMBER OF ATOMS
13
ITEM: BOX BOUNDS ff ff ff
-5.0000000000000000e+00 5.0000000000000000e+00
-5.0000000000000000e+00 5.0000000000000000e+00
-5.0000000000000000e+00 5.0000000000000000e+00
ITEM: ATOMS id type xs ys zs
1 1 0.527669 0.82019 0.836266
2 1 0.0304567 0.419484 0.188785
3 1 0.180094 0.966859 0.112137
4 1 0.163893 0.966192 0.60768
5 1 0.505369 0.789459 0.325813
6 1 0.29098 0.970653 0.129841
7 1 0.916165 0.822671 0.206388
8 1 0.490757 0.268727 0.482833
9 1 0.329696 0.709272 0.529926
10 1 0.812189 0.415735 0.447919
11 1 0.239221 0.599542 0.733455
12 1 0.947062 0.868205 0.304441
13 1 0.496746 0.917894 0.881851
ITEM: TIMESTEP
35
ITEM: NUMBER OF ATOMS
13
ITEM: BOX BOUNDS ff ff ff
-5.0000000000000000e+00 5.0000000000000000e+00
-5.0000000000000000e+00 5.0000000000000000e+00
-5.0000000000000000e+00 5.0000000000000000e+00
ITEM: ATOMS id type xs ys zs
1 1 0.527687 0.820111 0.836226
2 1 0.0304574 0.419485 0.188785
3 1 0.180204 0.966862 0.112156
4 1 0.163904 0.966178 0.607677
5 1 0.505345 0.789454 0.325831
6 1 0.290877 0.970644 0.129829
7 1 0.916217 0.822749 0.206557
8 1 0.490761 0.268731 0.482833
9 1 0.329684 0.709261 0.52997
10 1 0.812184 0.415734 0.447919
11 1 0.239252 0.59958 0.733395
12 1 0.947007 0.868125 0.304272
13 1 0.496719 0.917969 0.881883
ITEM: TIMESTEP
36
ITEM: NUMBER OF ATOMS
13
ITEM: BOX BOUNDS ff ff ff
-5.0000000000000000e+00 5.0000000000000000e+00
-5.0000000000000000e+00 5.0000000000000000e+00
-5.0000000000000000e+00 5.0000000000000000e+00
ITEM: ATOMS id type xs ys zs
1 1 0.527657 0.820186 0.836257
2 1 0.0304581 0.419485 0.188786
3 1 0.1801 0.966857 0.112141
4 1 0.163914 0.966163 0.607675
5 1 0.505323 0.78945 0.325849
6 1 0.290987 0.970643 0.129852
7 1 0.916161 0.822669 0.206387
8 1 0.490766 0.268736 0.482832
9 1 0.329672 0.70925 0.530012
10 1 0.812178 0.415734 0.447919
11 1 0.239282 0.599617 0.733337
12 1 0.947059 0.868204 0.304443
13 1 0.496742 0.917889 0.881845
ITEM: TIMESTEP
37
ITEM: NUMBER OF ATOMS
13
ITEM: BOX BOUNDS ff ff ff
-5.0000000000000000e+00 5.0000000000000000e+00
-5.0000000000000000e+00 5.0000000000000000e+00
-5.0000000000000000e+00 5.0000000000000000e+00
ITEM: ATOMS id type xs ys zs
1 1 0.527676 0.820105 0.836215
2 1 0.0304587 0.419486 0.188786
3 1 0.180212 0.96686 0.112161
4 1 0.163925 0.966148 0.607672
5 1 0.5053 0.789446 0.325867
6 1 0.290881 0.970635 0.12984
7 1 0.916214 0.822749 0.206561
8 1 0.490771 0.26874 0.482832
9 1 0.32966 0.709239 0.530056
10 1 0.812172 0.415733 0.44792
11 1 0.239313 0.599656 0.733275
12 1 0.947003 0.868123 0.304271
13 1 0.496715 0.917965 0.881878
ITEM: TIMESTEP
38
ITEM: NUMBER OF ATOMS
13
ITEM: BOX BOUNDS ff ff ff
-5.0000000000000000e+00 5.0000000000000000e+00
-5.0000000000000000e+00 5.0000000000000000e+00
-5.0000000000000000e+00 5.0000000000000000e+00
ITEM: ATOMS id type xs ys zs
1 1 0.527645 0.820182 0.836248
2 1 0.0304594 0.419487 0.188787
3 1 0.180105 0.966855 0.112145
4 1 0.163935 0.966134 0.60767
5 1 0.505277 0.789442 0.325885
6 1 0.290994 0.970634 0.129863
7 1 0.916156 0.822666 0.206386
8 1 0.490775 0.268744 0.482832
9 1 0.329648 0.709228 0.530099
10 1 0.812166 0.415732 0.44792
11 1 0.239342 0.599693 0.733217
12 1 0.947058 0.868204 0.304447
13 1 0.496738 0.917884 0.881838
ITEM: TIMESTEP
39
ITEM: NUMBER OF ATOMS
13
ITEM: BOX BOUNDS ff ff ff
-5.0000000000000000e+00 5.0000000000000000e+00
-5.0000000000000000e+00 5.0000000000000000e+00
-5.0000000000000000e+00 5.0000000000000000e+00
ITEM: ATOMS id type xs ys zs
1 1 0.527665 0.820097 0.836204
2 1 0.03046 0.419487 0.188787
3 1 0.180222 0.966858 0.112165
4 1 0.163946 0.966119 0.607667
5 1 0.505253 0.789437 0.325904
6 1 0.290883 0.970625 0.12985
7 1 0.916212 0.82275 0.206569
8 1 0.49078 0.268748 0.482831
9 1 0.329635 0.709216 0.530145
10 1 0.81216 0.415732 0.44792
11 1 0.239374 0.599732 0.733154
12 1 0.946999 0.868119 0.304266
13 1 0.496709 0.917963 0.881873
ITEM: TIMESTEP
40
ITEM: NUMBER OF ATOMS
13
ITEM: BOX BOUNDS ff ff ff
-5.0000000000000000e+00 5.0000000000000000e+00
-5.0000000000000000e+00 5.0000000000000000e+00
-5.0000000000000000e+00 5.0000000000000000e+00
ITEM: ATOMS id type xs ys zs
1 1 0.527632 0.820179 0.836239
2 1 0.0304607 0.419488 0.188788
3 1 0.180107 0.966853 0.112149
4 1 0.163956 0.966105 0.607664
5 1 0.505231 0.789433 0.325921
6 1 0.291004 0.970625 0.129874
7 1 0.91615 0.822661 0.20638
8 1 0.490784 0.268753 0.482831
9 1 0.329623 0.709205 0.530188
10 1 0.812155 0.415731 0.44792
11 1 0.239404 0.599769 0.733095
12 1 0.947057 0.868206 0.304455
13 1 0.496734 0.917877 0.88183
ITEM: TIMESTEP
41
ITEM: NUMBER OF ATOMS
13
ITEM: BOX BOUNDS ff ff ff
-5.0000000000000000e+00 5.0000000000000000e+00
-5.0000000000000000e+00 5.0000000000000000e+00
-5.0000000000000000e+00 5.0000000000000000e+00
ITEM: ATOMS id type xs ys zs
1 1 0.527653 0.820093 0.836195
2 1 0.0304613 0.419488 0.188788
3 1 0.180228 0.966856 0.11217
4 1 0.163966 0.96609 0.607662
5 1 0.505208 0.789429 0.325939
6 1 0.290889 0.970616 0.129861
7 1 0.916207 0.822748 0.206569
8 1 0.490789 0.268757 0.482831
9 1 0.329611 0.709193 0.530232
10 1 0.812149 0.41573 0.44792
11 1 0.239435 0.599808 0.733034
12 1 0.946996 0.868118 0.304268
13 1 0.496705 0.917959 0.881867
ITEM: TIMESTEP
42
ITEM: NUMBER OF ATOMS
13
ITEM: BOX BOUNDS ff ff ff
-5.0000000000000000e+00 5.0000000000000000e+00
-5.0000000000000000e+00 5.0000000000000000e+00
-5.0000000000000000e+00 5.0000000000000000e+00
ITEM: ATOMS id type xs ys zs
1 1 0.527621 0.820174 0.836229
2 1 0.030462 0.419489 0.188789
3 1 0.180114 0.966851 0.112153
4 1 0.163977 0.966076 0.607659
5 1 0.505185 0.789425 0.325957
6 1 0.29101 0.970615 0.129885
7 1 0.916146 0.82266 0.206382
8 1 0.490793 0.268761 0.48283
9 1 0.329599 0.709182 0.530276
10 1 0.812143 0.41573 0.44792
11 1 0.239465 0.599845 0.732974
12 1 0.947054 0.868204 0.304456
13 1 0.496729 0.917872 0.881824
ITEM: TIMESTEP
43
ITEM: NUMBER OF ATOMS
13
ITEM: BOX BOUNDS ff ff ff
-5.0000000000000000e+00 5.0000000000000000e+00
-5.0000000000000000e+00 5.0000000000000000e+00
-5.0000000000000000e+00 5.0000000000000000e+00
ITEM: ATOMS id type xs ys zs
1 1 0.527642 0.820088 0.836185
2 1 0.0304626 0.41949 0.188789
3 1 0.180235 0.966853 0.112174
4 1 0.163987 0.966061 0.607656
5 1 0.505163 0.789421 0.325975
6 1 0.290895 0.970606 0.129871
7 1 0.916204 0.822746 0.206571
8 1 0.490798 0.268765 0.48283
9 1 0.329586 0.70917 0.53032
10 1 0.812138 0.415729 0.44792
11 1 0.239496 0.599884 0.732913
12 1 0.946993 0.868116 0.304268
13 1 0.496701 0.917954 0.881861
ITEM: TIMESTEP
44
ITEM: NUMBER OF ATOMS
13
ITEM: BOX BOUNDS ff ff ff
-5.0000000000000000e+00 5.0000000000000000e+00
-5.0000000000000000e+00 5.0000000000000000e+00
-5.0000000000000000e+00 5.0000000000000000e+00
ITEM: ATOMS id type xs ys zs
1 1 0.527609 0.820169 0.836219
2 1 0.0304633 0.41949 0.18879
3 1 0.18012 0.966848 0.112157
4 1 0.163997 0.966047 0.607654
5 1 0.50514 0.789417 0.325993
6 1 0.291016 0.970606 0.129896
7 1 0.916142 0.822658 0.206383
8 1 0.490803 0.268769 0.48283
9 1 0.329573 0.709159 0.530364
10 1 0.812132 0.415728 0.44792
11 1 0.239527 0.599922 0.732853
12 1 0.947051 0.868203 0.304458
13 1 0.496725 0.917868 0.881818
ITEM: TIMESTEP
45
ITEM: NUMBER OF ATOMS
13
ITEM: BOX BOUNDS ff ff ff
-5.0000000000000000e+00 5.0000000000000000e+00
-5.0000000000000000e+00 5.0000000000000000e+00
-5.0000000000000000e+00 5.0000000000000000e+00
ITEM: ATOMS id type xs ys zs
1 1 0.52763 0.820083 0.836175
2 1 0.0304639 0.419491 0.18879
3 1 0.180241 0.966851 0.112178
4 1 0.164008 0.966032 0.607651
5 1 0.505117 0.789412 0.326011
6 1 0.290901 0.970597 0.129882
7 1 0.9162 0.822745 0.206572
8 1 0.490807 0.268773 0.482829
9 1 0.329561 0.709147 0.530409
10 1 0.812126 0.415728 0.44792
11 1 0.239558 0.59996 0.732791
12 1 0.94699 0.868115 0.304269
13 1 0.496696 0.91795 0.881854
ITEM: TIMESTEP
46
ITEM: NUMBER OF ATOMS
13
ITEM: BOX BOUNDS ff ff ff
-5.0000000000000000e+00 5.0000000000000000e+00
-5.0000000000000000e+00 5.0000000000000000e+00
-5.0000000000000000e+00 5.0000000000000000e+00
ITEM: ATOMS id type xs ys zs
1 1 0.527597 0.820164 0.83621
2 1 0.0304646 0.419491 0.188791
3 1 0.180127 0.966846 0.112162
4 1 0.164018 0.966018 0.607649
5 1 0.505095 0.789408 0.326029
6 1 0.291022 0.970596 0.129906