ITEM: TIMESTEP
0
ITEM: NUMBER OF ATOMS
13
ITEM: BOX BOUNDS ff ff ff
-5.0000000000000000e+00 5.0000000000000000e+00
-5.0000000000000000e+00 5.0000000000000000e+00
-5.0000000000000000e+00 5.0000000000000000e+00
ITEM: ATOMS id type xs ys zs
1 1 0.0954719 0.595699 0.912232
2 1 0.880389 0.69356 0.659717
3 1 0.869425 0.426117 0.756737
4 1 0.47535 0.207304 0.165356
5 1 0.145195 0.298743 0.965257
6 1 0.0722416 0.165302 0.229432
7 1 0.0621519 0.586507 0.420305
8 1 0.0708523 0.81504 0.371609
9 1 0.625986 0.947858 0.655098
10 1 0.236953 0.461913 0.370837
11 1 0.665206 0.109182 0.0173304
12 1 0.272482 0.606069 0.199911
13 1 0.89897 0.983459 0.997409
ITEM: TIMESTEP
1
ITEM: NUMBER OF ATOMS
13
ITEM: BOX BOUNDS ff ff ff
-5.0000000000000000e+00 5.0000000000000000e+00
-5.0000000000000000e+00 5.0000000000000000e+00
-5.0000000000000000e+00 5.0000000000000000e+00
ITEM: ATOMS id type xs ys zs
1 1 0.095632 0.594778 0.912338
2 1 0.88011 0.69235 0.660295
3 1 0.869474 0.4276 0.756202
4 1 0.477268 0.20633 0.163779
5 1 0.145044 0.299672 0.965075
6 1 0.0724988 0.165612 0.229535
7 1 0.0704171 0.587272 0.416265
8 1 0.0709898 0.808574 0.372657
9 1 0.626239 0.94763 0.655156
10 1 0.230687 0.471913 0.366973
11 1 0.663045 0.1103 0.0190135
12 1 0.27035 0.60132 0.206648
13 1 0.898919 0.983401 0.997295
ITEM: TIMESTEP
2
ITEM: NUMBER OF ATOMS
13
ITEM: BOX BOUNDS ff ff ff
-5.0000000000000000e+00 5.0000000000000000e+00
-5.0000000000000000e+00 5.0000000000000000e+00
-5.0000000000000000e+00 5.0000000000000000e+00
ITEM: ATOMS id type xs ys zs
1 1 0.0957528 0.594084 0.912419
2 1 0.879904 0.691417 0.660735
3 1 0.869512 0.428734 0.755794
4 1 0.47882 0.205539 0.162509
5 1 0.144929 0.300372 0.964939
6 1 0.072683 0.165839 0.229607
7 1 0.0784974 0.587056 0.412411
8 1 0.0711935 0.803122 0.373511
9 1 0.626424 0.947462 0.655199
10 1 0.224568 0.481913 0.363259
11 1 0.66132 0.111193 0.0203571
12 1 0.26819 0.596661 0.21328
13 1 0.898881 0.983358 0.997211
ITEM: TIMESTEP
3
ITEM: NUMBER OF ATOMS
13
ITEM: BOX BOUNDS ff ff ff
-5.0000000000000000e+00 5.0000000000000000e+00
-5.0000000000000000e+00 5.0000000000000000e+00
-5.0000000000000000e+00 5.0000000000000000e+00
ITEM: ATOMS id type xs ys zs
1 1 0.0958433 0.593564 0.912481
2 1 0.879752 0.690706 0.661067
3 1 0.86954 0.429594 0.755484
4 1 0.48005 0.204911 0.161506
5 1 0.144843 0.300897 0.964836
6 1 0.0728155 0.166005 0.229658
7 1 0.0865444 0.585802 0.408668
8 1 0.0714335 0.798677 0.374179
9 1 0.62656 0.947339 0.655231
10 1 0.218502 0.491913 0.359743
11 1 0.659965 0.111894 0.0214121
12 1 0.265971 0.592125 0.219816
13 1 0.898853 0.983326 0.997149
ITEM: TIMESTEP
4
ITEM: NUMBER OF ATOMS
13
ITEM: BOX BOUNDS ff ff ff
-5.0000000000000000e+00 5.0000000000000000e+00
-5.0000000000000000e+00 5.0000000000000000e+00
-5.0000000000000000e+00 5.0000000000000000e+00
ITEM: ATOMS id type xs ys zs
1 1 0.0959124 0.593168 0.912529
2 1 0.879637 0.690158 0.661322
3 1 0.869562 0.430254 0.755246
4 1 0.481025 0.204412 0.160712
5 1 0.144778 0.301296 0.964759
6 1 0.0729133 0.166128 0.229695
7 1 0.0947357 0.583566 0.40492
8 1 0.0716788 0.795107 0.374692
9 1 0.626662 0.947246 0.655255
10 1 0.212361 0.501913 0.356512
11 1 0.658897 0.112447 0.0222435
12 1 0.263677 0.587756 0.226242
13 1 0.898832 0.983302 0.997102
ITEM: TIMESTEP
5
ITEM: NUMBER OF ATOMS
13
ITEM: BOX BOUNDS ff ff ff
-5.0000000000000000e+00 5.0000000000000000e+00
-5.0000000000000000e+00 5.0000000000000000e+00
-5.0000000000000000e+00 5.0000000000000000e+00
ITEM: ATOMS id type xs ys zs
1 1 0.0959667 0.592856 0.912566
2 1 0.879547 0.689723 0.661523
3 1 0.869579 0.430776 0.755059
4 1 0.481814 0.204008 0.160072
5 1 0.144726 0.301611 0.964698
6 1 0.0729889 0.166225 0.229724
7 1 0.10324 0.580472 0.401031
8 1 0.0719105 0.79222 0.375091
9 1 0.626742 0.947173 0.655274
10 1 0.205998 0.511913 0.35369
11 1 0.658037 0.112892 0.0229125
12 1 0.261307 0.583601 0.232526
13 1 0.898816 0.983283 0.997066
ITEM: TIMESTEP
6
ITEM: NUMBER OF ATOMS
13
ITEM: BOX BOUNDS ff ff ff
-5.0000000000000000e+00 5.0000000000000000e+00
-5.0000000000000000e+00 5.0000000000000000e+00
-5.0000000000000000e+00 5.0000000000000000e+00
ITEM: ATOMS id type xs ys zs
1 1 0.0960102 0.592607 0.912596
2 1 0.879476 0.689373 0.661684
3 1 0.869593 0.431195 0.754908
4 1 0.482456 0.203679 0.159551
5 1 0.144685 0.301862 0.964649
6 1 0.0730484 0.166301 0.229746
7 1 0.112202 0.576617 0.396849
8 1 0.0721208 0.789879 0.375403
9 1 0.626806 0.947115 0.655289
10 1 0.199303 0.521913 0.351389
11 1 0.657339 0.113254 0.0234562
12 1 0.25883 0.579689 0.238674
13 1 0.898802 0.983269 0.997037
ITEM: TIMESTEP
7
ITEM: NUMBER OF ATOMS
13
ITEM: BOX BOUNDS ff ff ff
-5.0000000000000000e+00 5.0000000000000000e+00
-5.0000000000000000e+00 5.0000000000000000e+00
-5.0000000000000000e+00 5.0000000000000000e+00
ITEM: ATOMS id type xs ys zs
1 1 0.0960274 0.592509 0.912609
2 1 0.879448 0.689232 0.661749
3 1 0.869599 0.431362 0.754848
4 1 0.482725 0.20354 0.159333
5 1 0.144669 0.301961 0.96463
6 1 0.0730708 0.16633 0.229754
7 1 0.115315 0.575463 0.395276
8 1 0.0722378 0.788932 0.375512
9 1 0.62683 0.947093 0.655295
10 1 0.198256 0.526433 0.348364
11 1 0.657048 0.113404 0.0236826
12 1 0.256649 0.577231 0.243154
13 1 0.898797 0.983263 0.997025
ITEM: TIMESTEP
8
ITEM: NUMBER OF ATOMS
13
ITEM: BOX BOUNDS ff ff ff
-5.0000000000000000e+00 5.0000000000000000e+00
-5.0000000000000000e+00 5.0000000000000000e+00
-5.0000000000000000e+00 5.0000000000000000e+00
ITEM: ATOMS id type xs ys zs
1 1 0.0960437 0.592415 0.91262
2 1 0.879422 0.689098 0.66181
3 1 0.869604 0.431522 0.75479
4 1 0.482983 0.203408 0.159124
5 1 0.144654 0.302056 0.964611
6 1 0.0730921 0.166357 0.229762
7 1 0.117592 0.574781 0.394151
8 1 0.0723523 0.788028 0.375615
9 1 0.626854 0.947071 0.6553
10 1 0.198089 0.530422 0.344872
11 1 0.65677 0.113548 0.023899
12 1 0.254425 0.574788 0.247662
13 1 0.898793 0.983257 0.997015
ITEM: TIMESTEP
9
ITEM: NUMBER OF ATOMS
13
ITEM: BOX BOUNDS ff ff ff
-5.0000000000000000e+00 5.0000000000000000e+00
-5.0000000000000000e+00 5.0000000000000000e+00
-5.0000000000000000e+00 5.0000000000000000e+00
ITEM: ATOMS id type xs ys zs
1 1 0.096055 0.59235 0.912628
2 1 0.879404 0.689006 0.661852
3 1 0.869607 0.431632 0.754751
4 1 0.483162 0.203316 0.15898
5 1 0.144643 0.302121 0.964599
6 1 0.0731067 0.166376 0.229767
7 1 0.118615 0.57462 0.393703
8 1 0.0724328 0.787402 0.375685
9 1 0.62687 0.947057 0.655304
10 1 0.19859 0.532911 0.342024
11 1 0.656577 0.113648 0.0240492
12 1 0.25282 0.573059 0.250882
13 1 0.898789 0.983254 0.997007
ITEM: TIMESTEP
10
ITEM: NUMBER OF ATOMS
13
ITEM: BOX BOUNDS ff ff ff
-5.0000000000000000e+00 5.0000000000000000e+00
-5.0000000000000000e+00 5.0000000000000000e+00
-5.0000000000000000e+00 5.0000000000000000e+00
ITEM: ATOMS id type xs ys zs
1 1 0.0960559 0.592346 0.912629
2 1 0.879402 0.688999 0.661856
3 1 0.869608 0.431641 0.754748
4 1 0.483177 0.203308 0.158968
5 1 0.144642 0.302126 0.964598
6 1 0.0731077 0.166378 0.229767
7 1 0.117128 0.575441 0.394657
8 1 0.0724423 0.787355 0.375689
9 1 0.626871 0.947056 0.655304
10 1 0.200215 0.532244 0.340816
11 1 0.656561 0.113656 0.0240613
12 1 0.252674 0.572951 0.251132
13 1 0.898789 0.983253 0.997007
ITEM: TIMESTEP
11
ITEM: NUMBER OF ATOMS
13
ITEM: BOX BOUNDS ff ff ff
-5.0000000000000000e+00 5.0000000000000000e+00
-5.0000000000000000e+00 5.0000000000000000e+00
-5.0000000000000000e+00 5.0000000000000000e+00
ITEM: ATOMS id type xs ys zs
1 1 0.096056 0.592345 0.912629
2 1 0.879402 0.688998 0.661856
3 1 0.869608 0.431642 0.754747
4 1 0.483179 0.203307 0.158966
5 1 0.144642 0.302126 0.964598
6 1 0.0731078 0.166378 0.229767
7 1 0.116957 0.57554 0.394763
8 1 0.0724444 0.787347 0.375689
9 1 0.626871 0.947056 0.655304
10 1 0.200381 0.532143 0.340721
11 1 0.656559 0.113657 0.0240633
12 1 0.252677 0.572961 0.251121
13 1 0.898789 0.983253 0.997007
ITEM: TIMESTEP
12
ITEM: NUMBER OF ATOMS
13
ITEM: BOX BOUNDS ff ff ff
-5.0000000000000000e+00 5.0000000000000000e+00
-5.0000000000000000e+00 5.0000000000000000e+00
-5.0000000000000000e+00 5.0000000000000000e+00
ITEM: ATOMS id type xs ys zs
1 1 0.0960571 0.592338 0.91263
2 1 0.8794 0.688988 0.66186
3 1 0.869608 0.431653 0.754743
4 1 0.483203 0.203295 0.158947
5 1 0.144641 0.302133 0.964596
6 1 0.0731089 0.166379 0.229768
7 1 0.115607 0.576334 0.395591
8 1 0.0724641 0.787276 0.375691
9 1 0.626873 0.947054 0.655305
10 1 0.201664 0.531311 0.340026
11 1 0.656534 0.11367 0.0240823
12 1 0.252723 0.573067 0.250986
13 1 0.898789 0.983253 0.997006
ITEM: TIMESTEP
13
ITEM: NUMBER OF ATOMS
13
ITEM: BOX BOUNDS ff ff ff
-5.0000000000000000e+00 5.0000000000000000e+00
-5.0000000000000000e+00 5.0000000000000000e+00
-5.0000000000000000e+00 5.0000000000000000e+00
ITEM: ATOMS id type xs ys zs
1 1 0.0960578 0.592334 0.91263
2 1 0.879399 0.688981 0.661863
3 1 0.869608 0.431661 0.75474
4 1 0.483218 0.203287 0.158935
5 1 0.14464 0.302137 0.964596
6 1 0.0731097 0.16638 0.229768
7 1 0.115516 0.576442 0.395621
8 1 0.0724768 0.787229 0.375693
9 1 0.626874 0.947053 0.655305
10 1 0.201635 0.531117 0.340217
11 1 0.656519 0.113678 0.0240945
12 1 0.252831 0.5732 0.250762
13 1 0.898788 0.983253 0.997006
ITEM: TIMESTEP
14
ITEM: NUMBER OF ATOMS
13
ITEM: BOX BOUNDS ff ff ff
-5.0000000000000000e+00 5.0000000000000000e+00
-5.0000000000000000e+00 5.0000000000000000e+00
-5.0000000000000000e+00 5.0000000000000000e+00
ITEM: ATOMS id type xs ys zs
1 1 0.0960593 0.592326 0.912631
2 1 0.879397 0.688968 0.661869
3 1 0.869609 0.431676 0.754735
4 1 0.483249 0.203271 0.158911
5 1 0.144639 0.302146 0.964594
6 1 0.0731112 0.166383 0.229768
7 1 0.115506 0.57657 0.395568
8 1 0.072503 0.787132 0.375696
9 1 0.626875 0.947052 0.655305
10 1 0.201517 0.530907 0.34052
11 1 0.656486 0.113695 0.0241197
12 1 0.252934 0.573376 0.250509
13 1 0.898788 0.983252 0.997005
ITEM: TIMESTEP
15
ITEM: NUMBER OF ATOMS
13
ITEM: BOX BOUNDS ff ff ff
-5.0000000000000000e+00 5.0000000000000000e+00
-5.0000000000000000e+00 5.0000000000000000e+00
-5.0000000000000000e+00 5.0000000000000000e+00
ITEM: ATOMS id type xs ys zs
1 1 0.0960649 0.592294 0.912636
2 1 0.879389 0.688919 0.661891
3 1 0.869611 0.431734 0.754714
4 1 0.483363 0.203212 0.158819
5 1 0.144634 0.302178 0.964588
6 1 0.0731168 0.166391 0.22977
7 1 0.115314 0.577127 0.395471
8 1 0.0726002 0.78677 0.375709
9 1 0.626883 0.947045 0.655307
10 1 0.201775 0.530497 0.340587
11 1 0.656366 0.113757 0.024213
12 1 0.252771 0.573579 0.250525
13 1 0.898787 0.98325 0.997001
ITEM: TIMESTEP
16
ITEM: NUMBER OF ATOMS
13
ITEM: BOX BOUNDS ff ff ff
-5.0000000000000000e+00 5.0000000000000000e+00
-5.0000000000000000e+00 5.0000000000000000e+00
-5.0000000000000000e+00 5.0000000000000000e+00
ITEM: ATOMS id type xs ys zs
1 1 0.0962034 0.591504 0.91274
2 1 0.879181 0.687691 0.662432
3 1 0.869656 0.433159 0.754202
4 1 0.486226 0.201732 0.156535
5 1 0.144503 0.302974 0.964435
6 1 0.0732561 0.166587 0.229807
7 1 0.117945 0.587127 0.388298
8 1 0.0750386 0.777676 0.37604
9 1 0.627061 0.94688 0.655351
10 1 0.201766 0.52503 0.345319
11 1 0.653366 0.115309 0.0265462
12 1 0.247722 0.577875 0.252607
13 1 0.898749 0.983207 0.996918
ITEM: TIMESTEP
17
ITEM: NUMBER OF ATOMS
13
ITEM: BOX BOUNDS ff ff ff
-5.0000000000000000e+00 5.0000000000000000e+00
-5.0000000000000000e+00 5.0000000000000000e+00
-5.0000000000000000e+00 5.0000000000000000e+00
ITEM: ATOMS id type xs ys zs
1 1 0.0963434 0.590706 0.912845
2 1 0.878971 0.686449 0.662979
3 1 0.869703 0.434601 0.753685
4 1 0.489128 0.200232 0.154219
5 1 0.144371 0.30378 0.964281
6 1 0.0733969 0.166785 0.229845
7 1 0.120893 0.597127 0.380853
8 1 0.0775254 0.768402 0.376375
9 1 0.627242 0.946713 0.655396
10 1 0.202082 0.520339 0.349077
11 1 0.650325 0.116883 0.0289107
12 1 0.241982 0.581572 0.25593
13 1 0.89871 0.983164 0.996834
ITEM: TIMESTEP
18
ITEM: NUMBER OF ATOMS
13
ITEM: BOX BOUNDS ff ff ff
-5.0000000000000000e+00 5.0000000000000000e+00
-5.0000000000000000e+00 5.0000000000000000e+00
-5.0000000000000000e+00 5.0000000000000000e+00
ITEM: ATOMS id type xs ys zs
1 1 0.0964906 0.589866 0.912956
2 1 0.87875 0.685142 0.663555
3 1 0.869751 0.436119 0.75314
4 1 0.492201 0.198643 0.151769
5 1 0.144232 0.304627 0.964118
6 1 0.0735448 0.166994 0.229885
7 1 0.125027 0.606977 0.372488
8 1 0.0802115 0.758402 0.376724
9 1 0.627432 0.946538 0.655442
10 1 0.202063 0.517172 0.352041
11 1 0.647107 0.118548 0.0314133
12 1 0.235192 0.584608 0.260953
13 1 0.89867 0.983118 0.996745
ITEM: TIMESTEP
19
ITEM: NUMBER OF ATOMS
13
ITEM: BOX BOUNDS ff ff ff
-5.0000000000000000e+00 5.0000000000000000e+00
-5.0000000000000000e+00 5.0000000000000000e+00
-5.0000000000000000e+00 5.0000000000000000e+00
ITEM: ATOMS id type xs ys zs
1 1 0.096616 0.589151 0.913051
2 1 0.878563 0.684023 0.664047
3 1 0.869793 0.437416 0.752675
4 1 0.494906 0.197244 0.149613
5 1 0.144114 0.305348 0.96398
6 1 0.0736699 0.167171 0.229919
7 1 0.132127 0.613035 0.36364
8 1 0.0829802 0.748402 0.376931
9 1 0.627592 0.946389 0.655482
10 1 0.200194 0.520455 0.352084
11 1 0.644279 0.120011 0.0336121
12 1 0.227202 0.585029 0.269526
13 1 0.898636 0.98308 0.99667
ITEM: TIMESTEP
20
ITEM: NUMBER OF ATOMS
13
ITEM: BOX BOUNDS ff ff ff
-5.0000000000000000e+00 5.0000000000000000e+00
-5.0000000000000000e+00 5.0000000000000000e+00
-5.0000000000000000e+00 5.0000000000000000e+00
ITEM: ATOMS id type xs ys zs
1 1 0.0967206 0.588554 0.91313
2 1 0.878407 0.683082 0.664459
3 1 0.869828 0.438504 0.752284
4 1 0.497255 0.19603 0.147744
5 1 0.144015 0.30595 0.963865
6 1 0.0737738 0.167318 0.229948
7 1 0.140104 0.617731 0.354701
8 1 0.0859402 0.738402 0.376889
9 1 0.627726 0.946265 0.655515
10 1 0.196411 0.521921 0.355805
11 1 0.641828 0.121279 0.0355172
12 1 0.220057 0.588668 0.274764
13 1 0.898607 0.983048 0.996608
ITEM: TIMESTEP
21
ITEM: NUMBER OF ATOMS
13
ITEM: BOX BOUNDS ff ff ff
-5.0000000000000000e+00 5.0000000000000000e+00
-5.0000000000000000e+00 5.0000000000000000e+00
-5.0000000000000000e+00 5.0000000000000000e+00
ITEM: ATOMS id type xs ys zs
1 1 0.0967485 0.588395 0.913152
2 1 0.878366 0.682829 0.66457
3 1 0.869837 0.438797 0.752179
4 1 0.497931 0.19568 0.147208
5 1 0.143989 0.30611 0.963834
6 1 0.0738012 0.167357 0.229955
7 1 0.142134 0.620016 0.351966
8 1 0.0871755 0.734813 0.376674
9 1 0.627761 0.946233 0.655524
10 1 0.195136 0.520594 0.35845
11 1 0.641126 0.121642 0.0360636
12 1 0.218068 0.591247 0.275063
13 1 0.8986 0.983039 0.996591
ITEM: TIMESTEP
22
ITEM: NUMBER OF ATOMS
13
ITEM: BOX BOUNDS ff ff ff
-5.0000000000000000e+00 5.0000000000000000e+00
-5.0000000000000000e+00 5.0000000000000000e+00
-5.0000000000000000e+00 5.0000000000000000e+00
ITEM: ATOMS id type xs ys zs
1 1 0.0967531 0.588369 0.913155
2 1 0.87836 0.68278 0.66459
3 1 0.869839 0.438851 0.75216
4 1 0.498189 0.195547 0.147006
5 1 0.143984 0.306137 0.963829
6 1 0.0738048 0.167362 0.229956
7 1 0.140726 0.622811 0.35281
8 1 0.0888095 0.731455 0.375933
9 1 0.627766 0.946228 0.655525
10 1 0.19471 0.520722 0.358916
11 1 0.640865 0.121777 0.0362659
12 1 0.218268 0.591675 0.274493
13 1 0.898599 0.983038 0.996589
ITEM: TIMESTEP
23
ITEM: NUMBER OF ATOMS
13
ITEM: BOX BOUNDS ff ff ff
-5.0000000000000000e+00 5.0000000000000000e+00
-5.0000000000000000e+00 5.0000000000000000e+00
-5.0000000000000000e+00 5.0000000000000000e+00
ITEM: ATOMS id type xs ys zs
1 1 0.0967572 0.588345 0.913159
2 1 0.878355 0.682735 0.664609
3 1 0.869841 0.438902 0.752142
4 1 0.498451 0.195411 0.146802
5 1 0.143981 0.30616 0.963825
6 1 0.0738079 0.167367 0.229957
7 1 0.140669 0.62438 0.352873
8 1 0.0905853 0.727836 0.375122
9 1 0.62777 0.946224 0.655526
10 1 0.193861 0.522424 0.358756
11 1 0.640601 0.121914 0.0364709
12 1 0.217398 0.592017 0.275402
13 1 0.898598 0.983037 0.996587
ITEM: TIMESTEP
24
ITEM: NUMBER OF ATOMS
13
ITEM: BOX BOUNDS ff ff ff
-5.0000000000000000e+00 5.0000000000000000e+00
-5.0000000000000000e+00 5.0000000000000000e+00
-5.0000000000000000e+00 5.0000000000000000e+00
ITEM: ATOMS id type xs ys zs
1 1 0.0967607 0.588325 0.913162
2 1 0.87835 0.682695 0.664625
3 1 0.869842 0.438946 0.752126
4 1 0.498694 0.195285 0.146613
5 1 0.143977 0.306181 0.963821
6 1 0.0738104 0.167371 0.229958
7 1 0.141167 0.624738 0.352716
8 1 0.0919066 0.725225 0.374509
9 1 0.627774 0.946221 0.655527
10 1 0.192687 0.523537 0.359491
11 1 0.640355 0.122041 0.0366617
12 1 0.216753 0.593152 0.275436
13 1 0.898597 0.983036 0.996585
ITEM: TIMESTEP
25
ITEM: NUMBER OF ATOMS
13
ITEM: BOX BOUNDS ff ff ff
-5.0000000000000000e+00 5.0000000000000000e+00
-5.0000000000000000e+00 5.0000000000000000e+00
-5.0000000000000000e+00 5.0000000000000000e+00
ITEM: ATOMS id type xs ys zs
1 1 0.096763 0.588312 0.913164
2 1 0.878347 0.682669 0.664636
3 1 0.869843 0.438974 0.752116
4 1 0.498854 0.195202 0.146488
5 1 0.143975 0.306194 0.963818
6 1 0.0738119 0.167373 0.229959
7 1 0.141273 0.624766 0.352782
8 1 0.092388 0.724328 0.374276
9 1 0.627776 0.946219 0.655528
10 1 0.192258 0.524082 0.359665
11 1 0.640193 0.122124 0.036787
12 1 0.216594 0.593474 0.275428
13 1 0.898596 0.983035 0.996584
ITEM: TIMESTEP
26
ITEM: NUMBER OF ATOMS
13
ITEM: BOX BOUNDS ff ff ff
-5.0000000000000000e+00 5.0000000000000000e+00
-5.0000000000000000e+00 5.0000000000000000e+00
-5.0000000000000000e+00 5.0000000000000000e+00
ITEM: ATOMS id type xs ys zs
1 1 0.0967657 0.588297 0.913166
2 1 0.878344 0.682639 0.664648
3 1 0.869844 0.439007 0.752104
4 1 0.499046 0.195103 0.146339
5 1 0.143972 0.306209 0.963816
6 1 0.0738138 0.167376 0.229959
7 1 0.141374 0.624688 0.352825
8 1 0.0927296 0.723736 0.374102
9 1 0.627779 0.946216 0.655528
10 1 0.191926 0.524428 0.359861
11 1 0.64 0.122224 0.0369368
12 1 0.216483 0.593794 0.275363
13 1 0.898596 0.983035 0.996583
ITEM: TIMESTEP
27
ITEM: NUMBER OF ATOMS
13
ITEM: BOX BOUNDS ff ff ff
-5.0000000000000000e+00 5.0000000000000000e+00
-5.0000000000000000e+00 5.0000000000000000e+00
-5.0000000000000000e+00 5.0000000000000000e+00
ITEM: ATOMS id type xs ys zs
1 1 0.0967695 0.588275 0.913169
2 1 0.878339 0.682596 0.664666
3 1 0.869845 0.439055 0.752087
4 1 0.499327 0.194957 0.146119
5 1 0.143969 0.306231 0.963811
6 1 0.0738165 0.16738 0.22996
7 1 0.141417 0.62459 0.352874
8 1 0.0930029 0.723334 0.373945
9 1 0.627783 0.946212 0.655529
10 1 0.191713 0.524646 0.36
11 1 0.639717 0.122371 0.0371569
12 1 0.216379 0.594071 0.275332
13 1 0.898595 0.983034 0.996581
ITEM: TIMESTEP
28
ITEM: NUMBER OF ATOMS
13
ITEM: BOX BOUNDS ff ff ff
-5.0000000000000000e+00 5.0000000000000000e+00
-5.0000000000000000e+00 5.0000000000000000e+00
-5.0000000000000000e+00 5.0000000000000000e+00
ITEM: ATOMS id type xs ys zs
1 1 0.0969018 0.587518 0.913278
2 1 0.878168 0.681099 0.665276
3 1 0.869896 0.440704 0.751498
4 1 0.50925 0.189818 0.138389
5 1 0.143843 0.306994 0.963667
6 1 0.0739075 0.167524 0.229991
7 1 0.139845 0.621906 0.354545
8 1 0.096758 0.721137 0.370993
9 1 0.627916 0.946086 0.655565
10 1 0.191366 0.524924 0.360822
11 1 0.629717 0.127542 0.0449169
12 1 0.21454 0.598502 0.275775
13 1 0.898564 0.983 0.996516
ITEM: TIMESTEP
29
ITEM: NUMBER OF ATOMS
13
ITEM: BOX BOUNDS ff ff ff
-5.0000000000000000e+00 5.0000000000000000e+00
-5.0000000000000000e+00 5.0000000000000000e+00
-5.0000000000000000e+00 5.0000000000000000e+00
ITEM: ATOMS id type xs ys zs
1 1 0.0970299 0.586785 0.913383
2 1 0.878003 0.679647 0.665868
3 1 0.869945 0.442303 0.750927
4 1 0.519176 0.184678 0.130657
5 1 0.143722 0.307733 0.963527
6 1 0.0739954 0.167663 0.230021
7 1 0.137895 0.618988 0.356276
8 1 0.0996231 0.720846 0.368411
9 1 0.628045 0.945964 0.6556
10 1 0.192033 0.524582 0.360789
11 1 0.619717 0.132712 0.0526769
12 1 0.212955 0.601887 0.276644
13 1 0.898535 0.982967 0.996452
ITEM: TIMESTEP
30
ITEM: NUMBER OF ATOMS
13
ITEM: BOX BOUNDS ff ff ff
-5.0000000000000000e+00 5.0000000000000000e+00
-5.0000000000000000e+00 5.0000000000000000e+00
-5.0000000000000000e+00 5.0000000000000000e+00
ITEM: ATOMS id type xs ys zs
1 1 0.0971016 0.586374 0.913443
2 1 0.87791 0.678832 0.6662
3 1 0.869972 0.4432 0.750606
4 1 0.525341 0.181486 0.125857
5 1 0.143654 0.308147 0.963448
6 1 0.0740445 0.16774 0.230037
7 1 0.136161 0.617652 0.357423
8 1 0.100927 0.72156 0.36704
9 1 0.628117 0.945896 0.65562
10 1 0.193216 0.523792 0.360226
11 1 0.613511 0.135921 0.0574927
12 1 0.212198 0.603204 0.277422
13 1 0.898519 0.982948 0.996417
ITEM: TIMESTEP
31
ITEM: NUMBER OF ATOMS
13
ITEM: BOX BOUNDS ff ff ff
-5.0000000000000000e+00 5.0000000000000000e+00
-5.0000000000000000e+00 5.0000000000000000e+00
-5.0000000000000000e+00 5.0000000000000000e+00
ITEM: ATOMS id type xs ys zs
1 1 0.0971107 0.586322 0.91345
2 1 0.877899 0.678721 0.666244
3 1 0.869976 0.44332 0.750563
4 1 0.528252 0.179982 0.123599
5 1 0.143645 0.308199 0.963438
6 1 0.0740501 0.167749 0.230039
7 1 0.134831 0.617757 0.357875
8 1 0.100656 0.723254 0.366908
9 1 0.628125 0.945887 0.655622
10 1 0.194937 0.523333 0.358562
11 1 0.610596 0.137427 0.0597528
12 1 0.212078 0.601854 0.278764
13 1 0.898517 0.982946 0.996413
ITEM: TIMESTEP
32
ITEM: NUMBER OF ATOMS
13
ITEM: BOX BOUNDS ff ff ff
-5.0000000000000000e+00 5.0000000000000000e+00
-5.0000000000000000e+00 5.0000000000000000e+00
-5.0000000000000000e+00 5.0000000000000000e+00
ITEM: ATOMS id type xs ys zs
1 1 0.0971143 0.586301 0.913453
2 1 0.877894 0.678673 0.666263
3 1 0.869978 0.443373 0.750544
4 1 0.528427 0.179891 0.123463
5 1 0.143642 0.30822 0.963434
6 1 0.074052 0.167753 0.23004
7 1 0.134642 0.617211 0.358128
8 1 0.100686 0.723703 0.366782
9 1 0.628129 0.945884 0.655623
10 1 0.195135 0.523745 0.358042
11 1 0.610419 0.137519 0.0598895
12 1 0.21204 0.601535 0.279157
13 1 0.898516 0.982945 0.996411
ITEM: TIMESTEP
33
ITEM: NUMBER OF ATOMS
13
ITEM: BOX BOUNDS ff ff ff
-5.0000000000000000e+00 5.0000000000000000e+00
-5.0000000000000000e+00 5.0000000000000000e+00
-5.0000000000000000e+00 5.0000000000000000e+00
ITEM: ATOMS id type xs ys zs
1 1 0.0971154 0.586295 0.913454
2 1 0.877893 0.678658 0.666269
3 1 0.869978 0.443389 0.750539
4 1 0.52845 0.179879 0.123444
5 1 0.143641 0.308227 0.963433
6 1 0.0740526 0.167754 0.23004
7 1 0.134525 0.61717 0.358215
8 1 0.10072 0.723763 0.366737
9 1 0.62813 0.945883 0.655623
10 1 0.195213 0.523756 0.357949
11 1 0.610395 0.137531 0.0599082
12 1 0.212044 0.601503 0.279208
13 1 0.898516 0.982945 0.996411
ITEM: TIMESTEP
34
ITEM: NUMBER OF ATOMS
13
ITEM: BOX BOUNDS ff ff ff
-5.0000000000000000e+00 5.0000000000000000e+00
-5.0000000000000000e+00 5.0000000000000000e+00
-5.0000000000000000e+00 5.0000000000000000e+00
ITEM: ATOMS id type xs ys zs
1 1 0.0971166 0.586288 0.913455
2 1 0.877891 0.678643 0.666275
3 1 0.869979 0.443405 0.750533
4 1 0.528405 0.179902 0.123479
5 1 0.14364 0.308233 0.963432
6 1 0.0740532 0.167755 0.230041
7 1 0.134323 0.617355 0.358298
8 1 0.100804 0.72367 0.366678
9 1 0.628131 0.945882 0.655624
10 1 0.19531 0.523543 0.358007
11 1 0.61044 0.137508 0.0598736
12 1 0.212065 0.601623 0.279125
13 1 0.898515 0.982945 0.99641
ITEM: TIMESTEP
35
ITEM: NUMBER OF ATOMS
13
ITEM: BOX BOUNDS ff ff ff
-5.0000000000000000e+00 5.0000000000000000e+00
-5.0000000000000000e+00 5.0000000000000000e+00
-5.0000000000000000e+00 5.0000000000000000e+00
ITEM: ATOMS id type xs ys zs
1 1 0.0971375 0.586168 0.913473
2 1 0.877866 0.678362 0.666386
3 1 0.869988 0.443707 0.750425
4 1 0.527989 0.180117 0.123799
5 1 0.14362 0.308354 0.963409
6 1 0.074064 0.167776 0.230045
7 1 0.133482 0.616773 0.358729
8 1 0.101847 0.723593 0.365718
9 1 0.628149 0.945865 0.655629
10 1 0.195922 0.522774 0.358023
11 1 0.610848 0.137297 0.0595568
12 1 0.211249 0.603028 0.279637
13 1 0.898511 0.98294 0.996401
ITEM: TIMESTEP
36
ITEM: NUMBER OF ATOMS
13
ITEM: BOX BOUNDS ff ff ff
-5.0000000000000000e+00 5.0000000000000000e+00
-5.0000000000000000e+00 5.0000000000000000e+00
-5.0000000000000000e+00 5.0000000000000000e+00
ITEM: ATOMS id type xs ys zs
1 1 0.0971554 0.586065 0.913488
2 1 0.877844 0.678121 0.666481
3 1 0.869996 0.443967 0.750332
4 1 0.527816 0.180205 0.123931
5 1 0.143603 0.308458 0.963389
6 1 0.0740733 0.167793 0.23005
7 1 0.132841 0.616049 0.359152
8 1 0.10274 0.723561 0.364889
9 1 0.628165 0.945849 0.655633
10 1 0.196353 0.522456 0.357887
11 1 0.611014 0.137211 0.0594275
12 1 0.210565 0.604081 0.280178
13 1 0.898507 0.982936 0.996393
ITEM: TIMESTEP
37
ITEM: NUMBER OF ATOMS
13
ITEM: BOX BOUNDS ff ff ff
-5.0000000000000000e+00 5.0000000000000000e+00
-5.0000000000000000e+00 5.0000000000000000e+00
-5.0000000000000000e+00 5.0000000000000000e+00
ITEM: ATOMS id type xs ys zs
1 1 0.0971746 0.585955 0.913504
2 1 0.87782 0.677863 0.666582
3 1 0.870004 0.444244 0.750233
4 1 0.528194 0.18001 0.123637
5 1 0.143585 0.308569 0.963368
6 1 0.0740832 0.167812 0.230054
7 1 0.132238 0.614794 0.359871
8 1 0.103732 0.723484 0.363975
9 1 0.628182 0.945833 0.655638
10 1 0.196539 0.523113 0.357304
11 1 0.610629 0.13741 0.0597256
12 1 0.209988 0.604734 0.280954
13 1 0.898503 0.982931 0.996384
ITEM: TIMESTEP
38
ITEM: NUMBER OF ATOMS
13
ITEM: BOX BOUNDS ff ff ff
-5.0000000000000000e+00 5.0000000000000000e+00
-5.0000000000000000e+00 5.0000000000000000e+00
-5.0000000000000000e+00 5.0000000000000000e+00
ITEM: ATOMS id type xs ys zs
1 1 0.0971805 0.585921 0.913509
2 1 0.877813 0.677782 0.666614
3 1 0.870007 0.444331 0.750202
4 1 0.528422 0.179892 0.12346
5 1 0.143579 0.308603 0.963362
6 1 0.0740862 0.167818 0.230055
7 1 0.131618 0.61482 0.360426
8 1 0.104181 0.723065 0.363642
9 1 0.628187 0.945828 0.65564
10 1 0.19663 0.523326 0.357083
11 1 0.6104 0.137529 0.0599033
12 1 0.210068 0.604908 0.280952
13 1 0.898502 0.98293 0.996382
ITEM: TIMESTEP
39
ITEM: NUMBER OF ATOMS
13
ITEM: BOX BOUNDS ff ff ff
-5.0000000000000000e+00 5.0000000000000000e+00
-5.0000000000000000e+00 5.0000000000000000e+00
-5.0000000000000000e+00 5.0000000000000000e+00
ITEM: ATOMS id type xs ys zs
1 1 0.0971848 0.585896 0.913513
2 1 0.877808 0.677722 0.666638
3 1 0.870009 0.444395 0.750179
4 1 0.528279 0.179966 0.12357
5 1 0.143575 0.308628 0.963357
6 1 0.0740884 0.167822 0.230056
7 1 0.131681 0.614281 0.360502
8 1 0.104495 0.723016 0.363357
9 1 0.628191 0.945825 0.655641
10 1 0.196557 0.523599 0.356995
11 1 0.610541 0.137456 0.0597937
12 1 0.209764 0.605219 0.281249
13 1 0.898501 0.982929 0.99638
ITEM: TIMESTEP
40
ITEM: NUMBER OF ATOMS
13
ITEM: BOX BOUNDS ff ff ff
-5.0000000000000000e+00 5.0000000000000000e+00
-5.0000000000000000e+00 5.0000000000000000e+00
-5.0000000000000000e+00 5.0000000000000000e+00
ITEM: ATOMS id type xs ys zs
1 1 0.0973081 0.585186 0.913618
2 1 0.877657 0.675999 0.667312
3 1 0.870064 0.446241 0.749521
4 1 0.526287 0.180991 0.125102
5 1 0.143457 0.309342 0.963222
6 1 0.074151 0.16794 0.230084
7 1 0.126763 0.606902 0.365623
8 1 0.114286 0.718472 0.355095
9 1 0.628296 0.945723 0.655671
10 1 0.197537 0.525387 0.35559
11 1 0.612489 0.136449 0.0582817
12 1 0.203902 0.615219 0.285784
13 1 0.898476 0.9829 0.996326
ITEM: TIMESTEP
41
ITEM: NUMBER OF ATOMS
13
ITEM: BOX BOUNDS ff ff ff
-5.0000000000000000e+00 5.0000000000000000e+00
-5.0000000000000000e+00 5.0000000000000000e+00
-5.0000000000000000e+00 5.0000000000000000e+00
ITEM: ATOMS id type xs ys zs
1 1 0.0974317 0.584476 0.913724
2 1 0.877507 0.674271 0.667989
3 1 0.87012 0.448092 0.748861
4 1 0.524871 0.18172 0.126187
5 1 0.143339 0.310058 0.963087
6 1 0.0742136 0.168058 0.230113
7 1 0.120879 0.600616 0.370982
8 1 0.124286 0.713523 0.346712
9 1 0.628402 0.945622 0.655702
10 1 0.199335 0.52652 0.353872
11 1 0.61386 0.13574 0.0572162
12 1 0.197978 0.625185 0.290514
13 1 0.89845 0.982872 0.996272
ITEM: TIMESTEP
42
ITEM: NUMBER OF ATOMS
13
ITEM: BOX BOUNDS ff ff ff
-5.0000000000000000e+00 5.0000000000000000e+00
-5.0000000000000000e+00 5.0000000000000000e+00
-5.0000000000000000e+00 5.0000000000000000e+00
ITEM: ATOMS id type xs ys zs
1 1 0.0974918 0.58413 0.913775
2 1 0.877434 0.67343 0.668318
3 1 0.870147 0.448993 0.748539
4 1 0.524715 0.181798 0.126301
5 1 0.143282 0.310405 0.963022
6 1 0.074244 0.168116 0.230126
7 1 0.117763 0.598554 0.373372
8 1 0.129489 0.710197 0.342478
9 1 0.628453 0.945573 0.655717
10 1 0.200668 0.527108 0.352639
11 1 0.613994 0.135671 0.0571112
12 1 0.194553 0.629919 0.293587
13 1 0.898438 0.982858 0.996246
ITEM: TIMESTEP
43
ITEM: NUMBER OF ATOMS
13
ITEM: BOX BOUNDS ff ff ff
-5.0000000000000000e+00 5.0000000000000000e+00
-5.0000000000000000e+00 5.0000000000000000e+00
-5.0000000000000000e+00 5.0000000000000000e+00
ITEM: ATOMS id type xs ys zs
1 1 0.0974952 0.584111 0.913778
2 1 0.877429 0.673372 0.668341
3 1 0.870149 0.449054 0.748518
4 1 0.526562 0.180844 0.12487
5 1 0.143279 0.310425 0.963018
6 1 0.0742456 0.168119 0.230127
7 1 0.118393 0.600956 0.372094
8 1 0.130024 0.70755 0.342478
9 1 0.628456 0.94557 0.655718
10 1 0.200908 0.52887 0.351409
11 1 0.612146 0.136626 0.0585432
12 1 0.193148 0.628398 0.296094
13 1 0.898437 0.982858 0.996244
ITEM: TIMESTEP
44
ITEM: NUMBER OF ATOMS
13
ITEM: BOX BOUNDS ff ff ff
-5.0000000000000000e+00 5.0000000000000000e+00
-5.0000000000000000e+00 5.0000000000000000e+00
-5.0000000000000000e+00 5.0000000000000000e+00
ITEM: ATOMS id type xs ys zs
1 1 0.0974996 0.584085 0.913782
2 1 0.877424 0.673297 0.668369
3 1 0.870152 0.449133 0.748489
4 1 0.528657 0.179761 0.123246
5 1 0.143275 0.310451 0.963013
6 1 0.0742475 0.168122 0.230128
7 1 0.117057 0.6011 0.373041
8 1 0.13005 0.707409 0.342557
9 1 0.628459 0.945567 0.655719
10 1 0.201204 0.53031 0.350363
11 1 0.61005 0.137709 0.060168
12 1 0.194162 0.626952 0.296113
13 1 0.898436 0.982857 0.996243
ITEM: TIMESTEP
45
ITEM: NUMBER OF ATOMS
13
ITEM: BOX BOUNDS ff ff ff
-5.0000000000000000e+00 5.0000000000000000e+00
-5.0000000000000000e+00 5.0000000000000000e+00
-5.0000000000000000e+00 5.0000000000000000e+00
ITEM: ATOMS id type xs ys zs
1 1 0.0975036 0.584062 0.913786
2 1 0.877419 0.673228 0.668395
3 1 0.870154 0.449204 0.748464
4 1 0.528836 0.179669 0.123107
5 1 0.143271 0.310474 0.963009
6 1 0.0742493 0.168126 0.230129
7 1 0.116501 0.600597 0.373574
8 1 0.130385 0.707422 0.342317
9 1 0.628462 0.945564 0.65572
10 1 0.201237 0.530336 0.350398
11 1 0.609869 0.137802 0.0603076
12 1 0.19435 0.627412 0.295785
13 1 0.898435 0.982856 0.996241
ITEM: TIMESTEP
46
ITEM: NUMBER OF ATOMS
13
ITEM: BOX BOUNDS ff ff ff
-5.0000000000000000e+00 5.0000000000000000e+00
-5.0000000000000000e+00 5.0000000000000000e+00
-5.0000000000000000e+00 5.0000000000000000e+00
ITEM: ATOMS id type xs ys zs
1 1 0.0975087 0.584033 0.91379
2 1 0.877413 0.67314 0.668429