ITEM: TIMESTEP
0
ITEM: NUMBER OF ATOMS
17
ITEM: BOX BOUNDS ff ff ff
-5.0000000000000000e+00 5.0000000000000000e+00
-5.0000000000000000e+00 5.0000000000000000e+00
-5.0000000000000000e+00 5.0000000000000000e+00
ITEM: ATOMS id type xs ys zs
1 1 0.0323387 0.516982 0.909408
2 1 0.427077 0.884223 0.133865
3 1 0.870539 0.146206 0.280641
4 1 0.735641 0.924105 0.439704
5 1 0.0969532 0.492381 0.453152
6 1 0.127772 0.470425 0.436132
7 1 0.0679105 0.372007 0.315779
8 1 0.292256 0.949983 0.362118
9 1 0.110039 0.42829 0.274075
10 1 0.376408 0.281926 0.327303
11 1 0.977857 0.848761 0.133658
12 1 0.393807 0.719966 0.461546
13 1 0.211587 0.135928 0.543483
14 1 0.325958 0.382613 0.572898
15 1 0.69853 0.192036 0.542919
16 1 0.839311 0.299631 0.893258
17 1 0.98627 0.245646 0.573762
ITEM: TIMESTEP
1
ITEM: NUMBER OF ATOMS
17
ITEM: BOX BOUNDS ff ff ff
-5.0000000000000000e+00 5.0000000000000000e+00
-5.0000000000000000e+00 5.0000000000000000e+00
-5.0000000000000000e+00 5.0000000000000000e+00
ITEM: ATOMS id type xs ys zs
1 1 0.0323387 0.516982 0.909408
2 1 0.427077 0.884223 0.133865
3 1 0.870539 0.146206 0.280641
4 1 0.735641 0.924105 0.439704
5 1 0.0944532 0.494162 0.454533
6 1 0.130272 0.468644 0.434751
7 1 0.0679103 0.372006 0.315779
8 1 0.292256 0.949983 0.362118
9 1 0.110039 0.428291 0.274075
10 1 0.376408 0.281926 0.327303
11 1 0.977857 0.848761 0.133658
12 1 0.393807 0.719966 0.461546
13 1 0.211587 0.135928 0.543483
14 1 0.325958 0.382613 0.572898
15 1 0.69853 0.192036 0.542919
16 1 0.839311 0.299631 0.893258
17 1 0.98627 0.245646 0.573762
ITEM: TIMESTEP
2
ITEM: NUMBER OF ATOMS
17
ITEM: BOX BOUNDS ff ff ff
-5.0000000000000000e+00 5.0000000000000000e+00
-5.0000000000000000e+00 5.0000000000000000e+00
-5.0000000000000000e+00 5.0000000000000000e+00
ITEM: ATOMS id type xs ys zs
1 1 0.0323387 0.516982 0.909408
2 1 0.427077 0.884223 0.133865
3 1 0.870539 0.146206 0.280641
4 1 0.735641 0.924105 0.439704
5 1 0.0919532 0.495943 0.455913
6 1 0.132772 0.466863 0.433371
7 1 0.0679087 0.372004 0.31578
8 1 0.292256 0.949983 0.362118
9 1 0.110041 0.428293 0.274073
10 1 0.376408 0.281926 0.327303
11 1 0.977857 0.848761 0.133658
12 1 0.393807 0.719966 0.461546
13 1 0.211587 0.135928 0.543483
14 1 0.325958 0.382613 0.572898
15 1 0.69853 0.192036 0.542919
16 1 0.839311 0.299631 0.893258
17 1 0.98627 0.245646 0.573762
ITEM: TIMESTEP
3
ITEM: NUMBER OF ATOMS
17
ITEM: BOX BOUNDS ff ff ff
-5.0000000000000000e+00 5.0000000000000000e+00
-5.0000000000000000e+00 5.0000000000000000e+00
-5.0000000000000000e+00 5.0000000000000000e+00
ITEM: ATOMS id type xs ys zs
1 1 0.0323387 0.516982 0.909408
2 1 0.427077 0.884223 0.133865
3 1 0.870539 0.146206 0.280641
4 1 0.735641 0.924105 0.439704
5 1 0.0894532 0.497724 0.457294
6 1 0.135272 0.465082 0.43199
7 1 0.0679002 0.371993 0.315789
8 1 0.292256 0.949983 0.362118
9 1 0.11005 0.428304 0.274065
10 1 0.376408 0.281926 0.327303
11 1 0.977857 0.848761 0.133658
12 1 0.393807 0.719966 0.461546
13 1 0.211587 0.135928 0.543483
14 1 0.325958 0.382613 0.572898
15 1 0.69853 0.192036 0.542919
16 1 0.839311 0.299631 0.893258
17 1 0.98627 0.245646 0.573762
ITEM: TIMESTEP
4
ITEM: NUMBER OF ATOMS
17
ITEM: BOX BOUNDS ff ff ff
-5.0000000000000000e+00 5.0000000000000000e+00
-5.0000000000000000e+00 5.0000000000000000e+00
-5.0000000000000000e+00 5.0000000000000000e+00
ITEM: ATOMS id type xs ys zs
1 1 0.0323387 0.516982 0.909408
2 1 0.427077 0.884223 0.133865
3 1 0.870539 0.146206 0.280641
4 1 0.735641 0.924105 0.439704
5 1 0.0869532 0.499505 0.458675
6 1 0.137772 0.463301 0.430609
7 1 0.0678614 0.371941 0.315827
8 1 0.292256 0.949983 0.362118
9 1 0.110088 0.428356 0.274026
10 1 0.376408 0.281926 0.327303
11 1 0.977857 0.848761 0.133658
12 1 0.393807 0.719966 0.461546
13 1 0.211587 0.135928 0.543483
14 1 0.325958 0.382613 0.572898
15 1 0.69853 0.192036 0.542919
16 1 0.839311 0.299631 0.893258
17 1 0.98627 0.245646 0.573762
ITEM: TIMESTEP
5
ITEM: NUMBER OF ATOMS
17
ITEM: BOX BOUNDS ff ff ff
-5.0000000000000000e+00 5.0000000000000000e+00
-5.0000000000000000e+00 5.0000000000000000e+00
-5.0000000000000000e+00 5.0000000000000000e+00
ITEM: ATOMS id type xs ys zs
1 1 0.0323387 0.516982 0.909408
2 1 0.427077 0.884223 0.133865
3 1 0.870539 0.146206 0.280641
4 1 0.735641 0.924105 0.439704
5 1 0.0844532 0.501286 0.460055
6 1 0.140272 0.46152 0.429228
7 1 0.0677126 0.371742 0.315975
8 1 0.292256 0.949983 0.362118
9 1 0.110237 0.428555 0.273879
10 1 0.376408 0.281926 0.327303
11 1 0.977857 0.848761 0.133658
12 1 0.393807 0.719966 0.461546
13 1 0.211587 0.135928 0.543483
14 1 0.325958 0.382613 0.572898
15 1 0.69853 0.192036 0.542919
16 1 0.839311 0.299631 0.893258
17 1 0.98627 0.245646 0.573762
ITEM: TIMESTEP
6
ITEM: NUMBER OF ATOMS
17
ITEM: BOX BOUNDS ff ff ff
-5.0000000000000000e+00 5.0000000000000000e+00
-5.0000000000000000e+00 5.0000000000000000e+00
-5.0000000000000000e+00 5.0000000000000000e+00
ITEM: ATOMS id type xs ys zs
1 1 0.0323387 0.516982 0.909408
2 1 0.427077 0.884223 0.133865
3 1 0.870539 0.146206 0.280641
4 1 0.735641 0.924105 0.439704
5 1 0.0794532 0.504848 0.462815
6 1 0.145271 0.457955 0.426462
7 1 0.0667611 0.370471 0.316921
8 1 0.292256 0.949983 0.362118
9 1 0.111191 0.429829 0.272939
10 1 0.376407 0.281926 0.327303
11 1 0.977857 0.848761 0.133658
12 1 0.393807 0.719966 0.461546
13 1 0.211587 0.135928 0.543483
14 1 0.325958 0.382613 0.572898
15 1 0.69853 0.192036 0.542919
16 1 0.839311 0.299631 0.893258
17 1 0.98627 0.245646 0.573762
ITEM: TIMESTEP
7
ITEM: NUMBER OF ATOMS
17
ITEM: BOX BOUNDS ff ff ff
-5.0000000000000000e+00 5.0000000000000000e+00
-5.0000000000000000e+00 5.0000000000000000e+00
-5.0000000000000000e+00 5.0000000000000000e+00
ITEM: ATOMS id type xs ys zs
1 1 0.0323387 0.516982 0.909408
2 1 0.427077 0.884223 0.133866
3 1 0.870539 0.146206 0.280641
4 1 0.735641 0.924105 0.439703
5 1 0.0758617 0.507402 0.464792
6 1 0.148849 0.45538 0.424443
7 1 0.0630334 0.365492 0.320641
8 1 0.292257 0.949982 0.362117
9 1 0.114934 0.434829 0.269263
10 1 0.376407 0.281926 0.327304
11 1 0.977857 0.848761 0.133658
12 1 0.393807 0.719966 0.461546
13 1 0.211587 0.135929 0.543483
14 1 0.325957 0.382613 0.572896
15 1 0.69853 0.192036 0.542919
16 1 0.839311 0.299631 0.893258
17 1 0.98627 0.245646 0.573762
ITEM: TIMESTEP
8
ITEM: NUMBER OF ATOMS
17
ITEM: BOX BOUNDS ff ff ff
-5.0000000000000000e+00 5.0000000000000000e+00
-5.0000000000000000e+00 5.0000000000000000e+00
-5.0000000000000000e+00 5.0000000000000000e+00
ITEM: ATOMS id type xs ys zs
1 1 0.0323389 0.516981 0.909408
2 1 0.427074 0.884224 0.133871
3 1 0.870538 0.146207 0.280645
4 1 0.735641 0.924105 0.439703
5 1 0.0692776 0.512056 0.468375
6 1 0.155303 0.45054 0.420477
7 1 0.0602331 0.361743 0.32368
8 1 0.292262 0.949975 0.362115
9 1 0.117885 0.438754 0.266618
10 1 0.376398 0.281931 0.327312
11 1 0.977857 0.848762 0.133659
12 1 0.393804 0.71997 0.461543
13 1 0.21159 0.135938 0.543481
14 1 0.325943 0.382611 0.57288
15 1 0.698534 0.192036 0.542918
16 1 0.839311 0.29963 0.893257
17 1 0.986266 0.245645 0.573761
ITEM: TIMESTEP
9
ITEM: NUMBER OF ATOMS
17
ITEM: BOX BOUNDS ff ff ff
-5.0000000000000000e+00 5.0000000000000000e+00
-5.0000000000000000e+00 5.0000000000000000e+00
-5.0000000000000000e+00 5.0000000000000000e+00
ITEM: ATOMS id type xs ys zs
1 1 0.0323446 0.516979 0.909392
2 1 0.426976 0.884259 0.134073
3 1 0.870514 0.146235 0.280754
4 1 0.735625 0.924093 0.439686
5 1 0.0724743 0.508627 0.464974
6 1 0.146851 0.447958 0.410477
7 1 0.0599082 0.36038 0.333414
8 1 0.292449 0.949731 0.362026
9 1 0.124258 0.445766 0.270725
10 1 0.376092 0.282112 0.327609
11 1 0.977846 0.848764 0.133671
12 1 0.39369 0.720104 0.46144
13 1 0.211696 0.136245 0.543395
14 1 0.325428 0.38256 0.572249
15 1 0.698672 0.192062 0.542877
16 1 0.839317 0.299621 0.893212
17 1 0.986113 0.245612 0.573729
ITEM: TIMESTEP
10
ITEM: NUMBER OF ATOMS
17
ITEM: BOX BOUNDS ff ff ff
-5.0000000000000000e+00 5.0000000000000000e+00
-5.0000000000000000e+00 5.0000000000000000e+00
-5.0000000000000000e+00 5.0000000000000000e+00
ITEM: ATOMS id type xs ys zs
1 1 0.0323488 0.516977 0.90938
2 1 0.426902 0.884285 0.134223
3 1 0.870497 0.146256 0.280835
4 1 0.735614 0.924084 0.439673
5 1 0.0733057 0.507233 0.463427
6 1 0.141466 0.444265 0.400477
7 1 0.0625229 0.363074 0.338872
8 1 0.29259 0.949547 0.36196
9 1 0.12678 0.447894 0.277133
10 1 0.375861 0.282248 0.327832
11 1 0.977837 0.848766 0.13368
12 1 0.393605 0.720205 0.461362
13 1 0.211775 0.136476 0.543331
14 1 0.325056 0.382515 0.571787
15 1 0.698775 0.192081 0.542847
16 1 0.839322 0.299614 0.893178
17 1 0.985999 0.245587 0.573705
ITEM: TIMESTEP
11
ITEM: NUMBER OF ATOMS
17
ITEM: BOX BOUNDS ff ff ff
-5.0000000000000000e+00 5.0000000000000000e+00
-5.0000000000000000e+00 5.0000000000000000e+00
-5.0000000000000000e+00 5.0000000000000000e+00
ITEM: ATOMS id type xs ys zs
1 1 0.0323505 0.516976 0.909375
2 1 0.426871 0.884296 0.134286
3 1 0.870489 0.146265 0.280869
4 1 0.735609 0.92408 0.439668
5 1 0.0735268 0.506641 0.462719
6 1 0.138285 0.441733 0.394022
7 1 0.0661332 0.367358 0.340385
8 1 0.292649 0.949471 0.361932
9 1 0.126359 0.446631 0.282904
10 1 0.375764 0.282305 0.327925
11 1 0.977834 0.848766 0.133683
12 1 0.39357 0.720248 0.46133
13 1 0.211808 0.136572 0.543303
14 1 0.324915 0.382489 0.571606
15 1 0.698818 0.192089 0.542834
16 1 0.839324 0.299612 0.893164
17 1 0.985951 0.245577 0.573695
ITEM: TIMESTEP
12
ITEM: NUMBER OF ATOMS
17
ITEM: BOX BOUNDS ff ff ff
-5.0000000000000000e+00 5.0000000000000000e+00
-5.0000000000000000e+00 5.0000000000000000e+00
-5.0000000000000000e+00 5.0000000000000000e+00
ITEM: ATOMS id type xs ys zs
1 1 0.0323512 0.516975 0.909373
2 1 0.42686 0.8843 0.13431
3 1 0.870486 0.146268 0.280882
4 1 0.735607 0.924079 0.439666
5 1 0.0742573 0.505645 0.461588
6 1 0.136519 0.441185 0.394141
7 1 0.0680164 0.369718 0.340803
8 1 0.29267 0.949442 0.361922
9 1 0.125585 0.445782 0.283534
10 1 0.375725 0.282327 0.32796
11 1 0.977832 0.848767 0.133685
12 1 0.393557 0.720264 0.461318
13 1 0.21182 0.136609 0.543293
14 1 0.324876 0.382472 0.571549
15 1 0.698834 0.192091 0.54283
16 1 0.839325 0.299611 0.893159
17 1 0.985934 0.245573 0.573691
ITEM: TIMESTEP
13
ITEM: NUMBER OF ATOMS
17
ITEM: BOX BOUNDS ff ff ff
-5.0000000000000000e+00 5.0000000000000000e+00
-5.0000000000000000e+00 5.0000000000000000e+00
-5.0000000000000000e+00 5.0000000000000000e+00
ITEM: ATOMS id type xs ys zs
1 1 0.0323519 0.516975 0.909371
2 1 0.426845 0.884305 0.13434
3 1 0.870483 0.146272 0.280898
4 1 0.735605 0.924077 0.439664
5 1 0.0744326 0.505095 0.460901
6 1 0.136247 0.440913 0.394839
7 1 0.0680988 0.370045 0.341609
8 1 0.292698 0.949406 0.361909
9 1 0.125693 0.446234 0.282761
10 1 0.375677 0.282355 0.328004
11 1 0.977831 0.848767 0.133686
12 1 0.393541 0.720285 0.461302
13 1 0.211835 0.136655 0.543279
14 1 0.324826 0.38245 0.571477
15 1 0.698855 0.192095 0.542824
16 1 0.839326 0.299609 0.893152
17 1 0.985911 0.245568 0.573687
ITEM: TIMESTEP
14
ITEM: NUMBER OF ATOMS
17
ITEM: BOX BOUNDS ff ff ff
-5.0000000000000000e+00 5.0000000000000000e+00
-5.0000000000000000e+00 5.0000000000000000e+00
-5.0000000000000000e+00 5.0000000000000000e+00
ITEM: ATOMS id type xs ys zs
1 1 0.0323533 0.516974 0.909367
2 1 0.42682 0.884314 0.134391
3 1 0.870477 0.14628 0.280925
4 1 0.735601 0.924074 0.439659
5 1 0.0741269 0.504751 0.460341
6 1 0.136716 0.440291 0.394802
7 1 0.0680017 0.370435 0.342516
8 1 0.292746 0.949343 0.361886
9 1 0.125789 0.446737 0.282528
10 1 0.375593 0.282403 0.32808
11 1 0.977828 0.848767 0.133689
12 1 0.393513 0.720321 0.461275
13 1 0.211861 0.136735 0.543256
14 1 0.324739 0.382413 0.571352
15 1 0.69889 0.192101 0.542813
16 1 0.839327 0.299607 0.893141
17 1 0.985873 0.24556 0.573678
ITEM: TIMESTEP
15
ITEM: NUMBER OF ATOMS
17
ITEM: BOX BOUNDS ff ff ff
-5.0000000000000000e+00 5.0000000000000000e+00
-5.0000000000000000e+00 5.0000000000000000e+00
-5.0000000000000000e+00 5.0000000000000000e+00
ITEM: ATOMS id type xs ys zs
1 1 0.0323548 0.516974 0.909363
2 1 0.426792 0.884324 0.134447
3 1 0.87047 0.146287 0.280955
4 1 0.735597 0.924071 0.439655
5 1 0.0735614 0.504583 0.459945
6 1 0.138041 0.440087 0.394258
7 1 0.0676302 0.370737 0.342626
8 1 0.292798 0.949275 0.361862
9 1 0.125577 0.446728 0.283441
10 1 0.375503 0.282456 0.328162
11 1 0.977825 0.848768 0.133693
12 1 0.393483 0.72036 0.461246
13 1 0.21189 0.136822 0.543231
14 1 0.324646 0.382373 0.571216
15 1 0.698928 0.192108 0.542802
16 1 0.839329 0.299604 0.893129
17 1 0.985831 0.245551 0.57367
ITEM: TIMESTEP
16
ITEM: NUMBER OF ATOMS
17
ITEM: BOX BOUNDS ff ff ff
-5.0000000000000000e+00 5.0000000000000000e+00
-5.0000000000000000e+00 5.0000000000000000e+00
-5.0000000000000000e+00 5.0000000000000000e+00
ITEM: ATOMS id type xs ys zs
1 1 0.0323593 0.516971 0.909351
2 1 0.426707 0.884354 0.134621
3 1 0.87045 0.146311 0.281048
4 1 0.735584 0.924061 0.43964
5 1 0.0730769 0.502656 0.457263
6 1 0.1414 0.440926 0.395723
7 1 0.0661782 0.371505 0.342836
8 1 0.29296 0.949064 0.361785
9 1 0.124707 0.446797 0.284714
10 1 0.375218 0.28262 0.32842
11 1 0.977815 0.84877 0.133703
12 1 0.39339 0.720483 0.461155
13 1 0.211979 0.137093 0.543152
14 1 0.324351 0.382246 0.57079
15 1 0.699046 0.19213 0.542768
16 1 0.839334 0.299597 0.893091
17 1 0.985701 0.245523 0.573642
ITEM: TIMESTEP
17
ITEM: NUMBER OF ATOMS
17
ITEM: BOX BOUNDS ff ff ff
-5.0000000000000000e+00 5.0000000000000000e+00
-5.0000000000000000e+00 5.0000000000000000e+00
-5.0000000000000000e+00 5.0000000000000000e+00
ITEM: ATOMS id type xs ys zs
1 1 0.03236 0.516971 0.909349
2 1 0.426693 0.884359 0.13465
3 1 0.870447 0.146315 0.281063
4 1 0.735581 0.92406 0.439638
5 1 0.0723681 0.502812 0.457266
6 1 0.141117 0.439167 0.394129
7 1 0.0670917 0.372675 0.344251
8 1 0.292987 0.949029 0.361772
9 1 0.124877 0.44719 0.284933
10 1 0.375172 0.282648 0.328463
11 1 0.977814 0.84877 0.133704
12 1 0.393375 0.720503 0.461141
13 1 0.211993 0.137137 0.54314
14 1 0.3243 0.382226 0.570718
15 1 0.699065 0.192133 0.542762
16 1 0.839335 0.299595 0.893085
17 1 0.985679 0.245518 0.573638
ITEM: TIMESTEP
18
ITEM: NUMBER OF ATOMS
17
ITEM: BOX BOUNDS ff ff ff
-5.0000000000000000e+00 5.0000000000000000e+00
-5.0000000000000000e+00 5.0000000000000000e+00
-5.0000000000000000e+00 5.0000000000000000e+00
ITEM: ATOMS id type xs ys zs
1 1 0.0323604 0.516971 0.909348
2 1 0.426686 0.884361 0.134663
3 1 0.870445 0.146317 0.28107
4 1 0.73558 0.924059 0.439637
5 1 0.0722439 0.50268 0.457062
6 1 0.141124 0.438783 0.394065
7 1 0.0671897 0.372925 0.344751
8 1 0.293 0.949012 0.361766
9 1 0.124941 0.447435 0.284723
10 1 0.375149 0.282661 0.328484
11 1 0.977813 0.84877 0.133705
12 1 0.393367 0.720513 0.461133
13 1 0.212001 0.137159 0.543133
14 1 0.324276 0.382216 0.570683
15 1 0.699075 0.192135 0.54276
16 1 0.839336 0.299595 0.893082
17 1 0.985669 0.245516 0.573635
ITEM: TIMESTEP
19
ITEM: NUMBER OF ATOMS
17
ITEM: BOX BOUNDS ff ff ff
-5.0000000000000000e+00 5.0000000000000000e+00
-5.0000000000000000e+00 5.0000000000000000e+00
-5.0000000000000000e+00 5.0000000000000000e+00
ITEM: ATOMS id type xs ys zs
1 1 0.032361 0.51697 0.909346
2 1 0.426675 0.884365 0.134686
3 1 0.870443 0.14632 0.281082
4 1 0.735579 0.924057 0.439635
5 1 0.0724778 0.502052 0.456323
6 1 0.141615 0.43929 0.39535
7 1 0.0665488 0.37265 0.344948
8 1 0.293021 0.948985 0.361756
9 1 0.12493 0.447798 0.284016
10 1 0.375111 0.282683 0.328519
11 1 0.977812 0.848771 0.133706
12 1 0.393355 0.720529 0.461122
13 1 0.212012 0.137194 0.543123
14 1 0.324237 0.382199 0.570625
15 1 0.69909 0.192138 0.542755
16 1 0.839336 0.299594 0.893077
17 1 0.985652 0.245512 0.573632
ITEM: TIMESTEP
20
ITEM: NUMBER OF ATOMS
17
ITEM: BOX BOUNDS ff ff ff
-5.0000000000000000e+00 5.0000000000000000e+00
-5.0000000000000000e+00 5.0000000000000000e+00
-5.0000000000000000e+00 5.0000000000000000e+00
ITEM: ATOMS id type xs ys zs
1 1 0.0323632 0.516969 0.90934
2 1 0.426632 0.884381 0.134775
3 1 0.870433 0.146332 0.281129
4 1 0.735572 0.924052 0.439628
5 1 0.0723961 0.500453 0.454266
6 1 0.142986 0.439531 0.396155
7 1 0.0660814 0.373773 0.345627
8 1 0.293103 0.948877 0.361717
9 1 0.124397 0.447901 0.28473
10 1 0.374964 0.28277 0.328653
11 1 0.977807 0.848772 0.133711
12 1 0.393308 0.720591 0.461075
13 1 0.212058 0.137334 0.543083
14 1 0.32408 0.382135 0.570399
15 1 0.69915 0.192148 0.542738
16 1 0.839339 0.29959 0.893058
17 1 0.985586 0.245498 0.573618
ITEM: TIMESTEP
21
ITEM: NUMBER OF ATOMS
17
ITEM: BOX BOUNDS ff ff ff
-5.0000000000000000e+00 5.0000000000000000e+00
-5.0000000000000000e+00 5.0000000000000000e+00
-5.0000000000000000e+00 5.0000000000000000e+00
ITEM: ATOMS id type xs ys zs
1 1 0.0323674 0.516967 0.909329
2 1 0.426551 0.884409 0.134938
3 1 0.870414 0.146355 0.281216
4 1 0.73556 0.924043 0.439615
5 1 0.0707473 0.498687 0.451578
6 1 0.146114 0.438109 0.394929
7 1 0.0659134 0.376515 0.347516
8 1 0.293256 0.948678 0.361645
9 1 0.12362 0.448105 0.287015
10 1 0.374693 0.28293 0.328902
11 1 0.977798 0.848774 0.133721
12 1 0.39322 0.720707 0.460989
13 1 0.212142 0.137591 0.543009
14 1 0.32379 0.382017 0.569979
15 1 0.699261 0.192168 0.542706
16 1 0.839344 0.299583 0.893022
17 1 0.985465 0.245472 0.573592
ITEM: TIMESTEP
22
ITEM: NUMBER OF ATOMS
17
ITEM: BOX BOUNDS ff ff ff
-5.0000000000000000e+00 5.0000000000000000e+00
-5.0000000000000000e+00 5.0000000000000000e+00
-5.0000000000000000e+00 5.0000000000000000e+00
ITEM: ATOMS id type xs ys zs
1 1 0.0323802 0.51696 0.909294
2 1 0.426304 0.884496 0.135443
3 1 0.870356 0.146424 0.281482
4 1 0.735522 0.924015 0.439574
5 1 0.0662734 0.492245 0.442251
6 1 0.156114 0.434237 0.394323
7 1 0.0629577 0.382586 0.355691
8 1 0.293725 0.948065 0.361422
9 1 0.122703 0.451595 0.289582
10 1 0.373853 0.283425 0.329672
11 1 0.977771 0.848779 0.13375
12 1 0.392951 0.721064 0.460725
13 1 0.212402 0.138384 0.542781
14 1 0.322891 0.381652 0.568678
15 1 0.699603 0.192229 0.542607
16 1 0.839359 0.299561 0.892914
17 1 0.98509 0.245391 0.573512
ITEM: TIMESTEP
23
ITEM: NUMBER OF ATOMS
17
ITEM: BOX BOUNDS ff ff ff
-5.0000000000000000e+00 5.0000000000000000e+00
-5.0000000000000000e+00 5.0000000000000000e+00
-5.0000000000000000e+00 5.0000000000000000e+00
ITEM: ATOMS id type xs ys zs
1 1 0.0323913 0.516954 0.909264
2 1 0.426088 0.884572 0.135883
3 1 0.870305 0.146484 0.281714
4 1 0.73549 0.92399 0.439538
5 1 0.0641064 0.484579 0.432251
6 1 0.162793 0.431557 0.394943
7 1 0.0611429 0.389313 0.363532
8 1 0.294135 0.947531 0.361228
9 1 0.121454 0.454554 0.291833
10 1 0.373118 0.28386 0.330346
11 1 0.977748 0.848784 0.133775
12 1 0.392717 0.721376 0.460495
13 1 0.212629 0.139077 0.542581
14 1 0.322103 0.381334 0.567535
15 1 0.6999 0.192283 0.542522
16 1 0.839372 0.299542 0.892819
17 1 0.984764 0.24532 0.573443
ITEM: TIMESTEP
24
ITEM: NUMBER OF ATOMS
17
ITEM: BOX BOUNDS ff ff ff
-5.0000000000000000e+00 5.0000000000000000e+00
-5.0000000000000000e+00 5.0000000000000000e+00
-5.0000000000000000e+00 5.0000000000000000e+00
ITEM: ATOMS id type xs ys zs
1 1 0.0323938 0.516952 0.909257
2 1 0.426039 0.88459 0.135983
3 1 0.870294 0.146498 0.281766
4 1 0.735482 0.923984 0.43953
5 1 0.064389 0.482043 0.429234
6 1 0.163157 0.431226 0.395001
7 1 0.0613121 0.391592 0.365443
8 1 0.294227 0.94741 0.361185
9 1 0.120971 0.45499 0.293045
10 1 0.37295 0.28396 0.3305
11 1 0.977742 0.848785 0.13378
12 1 0.392664 0.721446 0.460443
13 1 0.21268 0.139233 0.542536
14 1 0.321921 0.381263 0.567272
15 1 0.699967 0.192295 0.542502
16 1 0.839375 0.299537 0.892798
17 1 0.98469 0.245304 0.573427
ITEM: TIMESTEP
25
ITEM: NUMBER OF ATOMS
17
ITEM: BOX BOUNDS ff ff ff
-5.0000000000000000e+00 5.0000000000000000e+00
-5.0000000000000000e+00 5.0000000000000000e+00
-5.0000000000000000e+00 5.0000000000000000e+00
ITEM: ATOMS id type xs ys zs
1 1 0.0323944 0.516952 0.909256
2 1 0.426026 0.884594 0.136009
3 1 0.870291 0.146501 0.281779
4 1 0.735481 0.923983 0.439528
5 1 0.0664691 0.481945 0.428163
6 1 0.161026 0.431862 0.395075
7 1 0.0621196 0.391179 0.364566
8 1 0.294252 0.947378 0.361173
9 1 0.120319 0.454815 0.294976
10 1 0.372898 0.283993 0.330546
11 1 0.977741 0.848785 0.133782
12 1 0.392651 0.721465 0.460428
13 1 0.212694 0.139277 0.542524
14 1 0.321862 0.381245 0.567184
15 1 0.699984 0.192298 0.542497
16 1 0.839376 0.299536 0.892793
17 1 0.984671 0.2453 0.573423
ITEM: TIMESTEP
26
ITEM: NUMBER OF ATOMS
17
ITEM: BOX BOUNDS ff ff ff
-5.0000000000000000e+00 5.0000000000000000e+00
-5.0000000000000000e+00 5.0000000000000000e+00
-5.0000000000000000e+00 5.0000000000000000e+00
ITEM: ATOMS id type xs ys zs
1 1 0.0323948 0.516952 0.909254
2 1 0.426017 0.884597 0.136028
3 1 0.870289 0.146504 0.281789
4 1 0.735479 0.923982 0.439526
5 1 0.0673464 0.482145 0.427503
6 1 0.160857 0.432027 0.395664
7 1 0.0618968 0.390374 0.364239
8 1 0.29427 0.947355 0.361164
9 1 0.119909 0.45522 0.295413
10 1 0.372861 0.284017 0.33058
11 1 0.97774 0.848785 0.133783
12 1 0.392641 0.721479 0.460418
13 1 0.212705 0.139308 0.542515
14 1 0.321819 0.381231 0.56712
15 1 0.699997 0.1923 0.542494
16 1 0.839376 0.299535 0.892789
17 1 0.984658 0.245297 0.57342
ITEM: TIMESTEP
27
ITEM: NUMBER OF ATOMS
17
ITEM: BOX BOUNDS ff ff ff
-5.0000000000000000e+00 5.0000000000000000e+00
-5.0000000000000000e+00 5.0000000000000000e+00
-5.0000000000000000e+00 5.0000000000000000e+00
ITEM: ATOMS id type xs ys zs
1 1 0.032395 0.516952 0.909254
2 1 0.426012 0.884599 0.136038
3 1 0.870288 0.146505 0.281794
4 1 0.735479 0.923981 0.439526
5 1 0.0672336 0.482348 0.427181
6 1 0.161447 0.431784 0.395955
7 1 0.0616322 0.390002 0.36434
8 1 0.294278 0.947343 0.36116
9 1 0.119734 0.455613 0.295363
10 1 0.372843 0.284028 0.330597
11 1 0.97774 0.848786 0.133783
12 1 0.392636 0.721486 0.460413
13 1 0.21271 0.139324 0.542511
14 1 0.321798 0.381224 0.567089
15 1 0.700003 0.192301 0.542492
16 1 0.839377 0.299535 0.892787
17 1 0.984651 0.245295 0.573419
ITEM: TIMESTEP
28
ITEM: NUMBER OF ATOMS
17
ITEM: BOX BOUNDS ff ff ff
-5.0000000000000000e+00 5.0000000000000000e+00
-5.0000000000000000e+00 5.0000000000000000e+00
-5.0000000000000000e+00 5.0000000000000000e+00
ITEM: ATOMS id type xs ys zs
1 1 0.0324002 0.516949 0.909241
2 1 0.4259 0.884638 0.136267
3 1 0.870263 0.146535 0.281909
4 1 0.735462 0.923969 0.439508
5 1 0.068169 0.48402 0.417181
6 1 0.165856 0.427184 0.398306
7 1 0.061685 0.386423 0.366464
8 1 0.294491 0.947066 0.361059
9 1 0.115237 0.461699 0.30137
10 1 0.372407 0.284306 0.330999
11 1 0.977728 0.848788 0.133795
12 1 0.392518 0.721651 0.460291
13 1 0.212832 0.139701 0.542405
14 1 0.321283 0.381066 0.566331
15 1 0.700155 0.192327 0.54245
16 1 0.839383 0.299526 0.892741
17 1 0.984486 0.24526 0.573383
ITEM: TIMESTEP
29
ITEM: NUMBER OF ATOMS
17
ITEM: BOX BOUNDS ff ff ff
-5.0000000000000000e+00 5.0000000000000000e+00
-5.0000000000000000e+00 5.0000000000000000e+00
-5.0000000000000000e+00 5.0000000000000000e+00
ITEM: ATOMS id type xs ys zs
1 1 0.0324019 0.516948 0.909237
2 1 0.425862 0.884652 0.136344
3 1 0.870254 0.146545 0.281948
4 1 0.735457 0.923965 0.439502
5 1 0.0690211 0.484628 0.41362
6 1 0.166376 0.425857 0.39868
7 1 0.062167 0.385193 0.36698
8 1 0.294563 0.946972 0.361025
9 1 0.113689 0.463504 0.304208
10 1 0.372259 0.284401 0.331135
11 1 0.977724 0.848789 0.133799
12 1 0.392479 0.721707 0.46025
13 1 0.212873 0.139828 0.542369
14 1 0.321108 0.381013 0.566073
15 1 0.700206 0.192336 0.542435
16 1 0.839385 0.299522 0.892725
17 1 0.984431 0.245248 0.573371
ITEM: TIMESTEP
30
ITEM: NUMBER OF ATOMS
17
ITEM: BOX BOUNDS ff ff ff
-5.0000000000000000e+00 5.0000000000000000e+00
-5.0000000000000000e+00 5.0000000000000000e+00
-5.0000000000000000e+00 5.0000000000000000e+00
ITEM: ATOMS id type xs ys zs
1 1 0.0324026 0.516947 0.909235
2 1 0.425846 0.884657 0.136375
3 1 0.870251 0.146549 0.281964
4 1 0.735455 0.923964 0.4395
5 1 0.0714709 0.485195 0.41166
6 1 0.162739 0.426288 0.397221
7 1 0.0640994 0.384364 0.366472
8 1 0.294591 0.946935 0.361011
9 1 0.113078 0.463273 0.308209
10 1 0.372196 0.284441 0.331193
11 1 0.977723 0.848789 0.133801
12 1 0.392463 0.72173 0.460233
13 1 0.212889 0.139881 0.542354
14 1 0.321029 0.380992 0.565958
15 1 0.700226 0.19234 0.54243
16 1 0.839386 0.299521 0.892719
17 1 0.984409 0.245243 0.573367
ITEM: TIMESTEP
31
ITEM: NUMBER OF ATOMS
17
ITEM: BOX BOUNDS ff ff ff
-5.0000000000000000e+00 5.0000000000000000e+00
-5.0000000000000000e+00 5.0000000000000000e+00
-5.0000000000000000e+00 5.0000000000000000e+00
ITEM: ATOMS id type xs ys zs
1 1 0.0324027 0.516947 0.909235
2 1 0.425845 0.884658 0.136378
3 1 0.870251 0.146549 0.281965
4 1 0.735455 0.923963 0.4395
5 1 0.0713009 0.485432 0.411664
6 1 0.163202 0.426028 0.397546
7 1 0.0639282 0.384043 0.366536
8 1 0.294594 0.946931 0.36101
9 1 0.11297 0.46361 0.307823
10 1 0.37219 0.284445 0.331199
11 1 0.977723 0.848789 0.133801
12 1 0.392461 0.721732 0.460231
13 1 0.212891 0.139886 0.542353
14 1 0.321022 0.38099 0.565947
15 1 0.700228 0.19234 0.542429
16 1 0.839386 0.299521 0.892718
17 1 0.984407 0.245243 0.573366
ITEM: TIMESTEP
32
ITEM: NUMBER OF ATOMS
17
ITEM: BOX BOUNDS ff ff ff
-5.0000000000000000e+00 5.0000000000000000e+00
-5.0000000000000000e+00 5.0000000000000000e+00
-5.0000000000000000e+00 5.0000000000000000e+00
ITEM: ATOMS id type xs ys zs
1 1 0.0324029 0.516947 0.909234
2 1 0.42584 0.884659 0.136388
3 1 0.87025 0.146551 0.28197
4 1 0.735454 0.923963 0.439499
5 1 0.0709906 0.485913 0.411518
6 1 0.164119 0.42542 0.398218
7 1 0.0636543 0.383389 0.366711
8 1 0.294604 0.946919 0.361005
9 1 0.112679 0.464373 0.307146
10 1 0.37217 0.284457 0.331218
11 1 0.977722 0.848789 0.133802
12 1 0.392456 0.721739 0.460226
13 1 0.212896 0.139903 0.542348
14 1 0.320997 0.380983 0.565911
15 1 0.700235 0.192341 0.542427
16 1 0.839387 0.299521 0.892716
17 1 0.9844 0.245241 0.573365
ITEM: TIMESTEP
33
ITEM: NUMBER OF ATOMS
17
ITEM: BOX BOUNDS ff ff ff
-5.0000000000000000e+00 5.0000000000000000e+00
-5.0000000000000000e+00 5.0000000000000000e+00
-5.0000000000000000e+00 5.0000000000000000e+00
ITEM: ATOMS id type xs ys zs
1 1 0.032404 0.516946 0.909232
2 1 0.425816 0.884668 0.136437
3 1 0.870244 0.146557 0.281995
4 1 0.735451 0.92396 0.439495
5 1 0.0713131 0.485987 0.40975
6 1 0.164143 0.424296 0.398665
7 1 0.0644394 0.383224 0.367272
8 1 0.294649 0.946859 0.360984
9 1 0.111758 0.465491 0.30802
10 1 0.372071 0.28452 0.33131
11 1 0.97772 0.84879 0.133804
12 1 0.392431 0.721775 0.4602
13 1 0.212922 0.139987 0.542323
14 1 0.320875 0.380948 0.565732
15 1 0.700267 0.192347 0.542418
16 1 0.839388 0.299519 0.892707
17 1 0.984365 0.245233 0.573357
ITEM: TIMESTEP
34
ITEM: NUMBER OF ATOMS
17
ITEM: BOX BOUNDS ff ff ff
-5.0000000000000000e+00 5.0000000000000000e+00
-5.0000000000000000e+00 5.0000000000000000e+00
-5.0000000000000000e+00 5.0000000000000000e+00
ITEM: ATOMS id type xs ys zs
1 1 0.0324042 0.516946 0.909231
2 1 0.425809 0.88467 0.13645
3 1 0.870243 0.146559 0.282001
4 1 0.73545 0.92396 0.439495
5 1 0.0713047 0.486138 0.409633
6 1 0.164165 0.42411 0.398712
7 1 0.0645425 0.383064 0.367343
8 1 0.294661 0.946844 0.360978
9 1 0.111696 0.465662 0.30805
10 1 0.372045 0.284536 0.331333
11 1 0.977719 0.84879 0.133805
12 1 0.392424 0.721784 0.460193
13 1 0.212929 0.140009 0.542317
14 1 0.320843 0.380939 0.565686
15 1 0.700276 0.192348 0.542416
16 1 0.839388 0.299518 0.892704
17 1 0.984356 0.245231 0.573355
ITEM: TIMESTEP
35
ITEM: NUMBER OF ATOMS
17
ITEM: BOX BOUNDS ff ff ff
-5.0000000000000000e+00 5.0000000000000000e+00
-5.0000000000000000e+00 5.0000000000000000e+00
-5.0000000000000000e+00 5.0000000000000000e+00
ITEM: ATOMS id type xs ys zs
1 1 0.0324043 0.516946 0.909231
2 1 0.425807 0.884671 0.136455
3 1 0.870242 0.146559 0.282004
4 1 0.735449 0.92396 0.439494
5 1 0.0712612 0.486232 0.409779
6 1 0.164163 0.42412 0.398682
7 1 0.06453 0.382979 0.367325
8 1 0.294665 0.946838 0.360976
9 1 0.111775 0.465634 0.307963
10 1 0.372036 0.284542 0.331342
11 1 0.977719 0.84879 0.133805
12 1 0.392422 0.721788 0.46019
13 1 0.212931 0.140017 0.542315
14 1 0.320832 0.380936 0.565669
15 1 0.700279 0.192349 0.542415
16 1 0.839388 0.299518 0.892703
17 1 0.984352 0.245231 0.573354
ITEM: TIMESTEP
36
ITEM: NUMBER OF ATOMS
17
ITEM: BOX BOUNDS ff ff ff
-5.0000000000000000e+00 5.0000000000000000e+00
-5.0000000000000000e+00 5.0000000000000000e+00
-5.0000000000000000e+00 5.0000000000000000e+00
ITEM: ATOMS id type xs ys zs
1 1 0.0324044 0.516946 0.909231
2 1 0.425806 0.884671 0.136458
3 1 0.870242 0.14656 0.282005
4 1 0.735449 0.923959 0.439494
5 1 0.0712462 0.486269 0.409845
6 1 0.164153 0.424129 0.398662
7 1 0.0645293 0.382947 0.367316
8 1 0.294668 0.946835 0.360975
9 1 0.111814 0.465614 0.307932
10 1 0.37203 0.284546 0.331348
11 1 0.977719 0.84879 0.133805
12 1 0.39242 0.72179 0.460189
13 1 0.212933 0.140022 0.542313
14 1 0.320824 0.380933 0.565657
15 1 0.700281 0.192349 0.542414
16 1 0.839388 0.299518 0.892703
17 1 0.98435 0.24523 0.573354
ITEM: TIMESTEP
37
ITEM: NUMBER OF ATOMS
17
ITEM: BOX BOUNDS ff ff ff
-5.0000000000000000e+00 5.0000000000000000e+00
-5.0000000000000000e+00 5.0000000000000000e+00
-5.0000000000000000e+00 5.0000000000000000e+00
ITEM: ATOMS id type xs ys zs
1 1 0.0324045 0.516946 0.909231
2 1 0.425804 0.884672 0.136461
3 1 0.870242 0.14656 0.282007
4 1 0.735449 0.923959 0.439494
5 1 0.0712371 0.486294 0.409894
6 1 0.164143 0.424138 0.398646
7 1 0.0645303 0.382926 0.367309
8 1 0.294671 0.946831 0.360973
9 1 0.111844 0.465596 0.307913
10 1 0.372024 0.284549 0.331353
11 1 0.977719 0.84879 0.133805
12 1 0.392419 0.721792 0.460187
13 1 0.212934 0.140027 0.542312
14 1 0.320817 0.380931 0.565647
15 1 0.700283 0.192349 0.542414
16 1 0.839389 0.299518 0.892702
17 1 0.984348 0.24523 0.573354
ITEM: TIMESTEP
38
ITEM: NUMBER OF ATOMS
17
ITEM: BOX BOUNDS ff ff ff
-5.0000000000000000e+00 5.0000000000000000e+00
-5.0000000000000000e+00 5.0000000000000000e+00
-5.0000000000000000e+00 5.0000000000000000e+00
ITEM: ATOMS id type xs ys zs
1 1 0.0324045 0.516946 0.90923
2 1 0.425803 0.884672 0.136464
3 1 0.870241 0.14656 0.282008
4 1 0.735449 0.923959 0.439493
5 1 0.0712299 0.486315 0.409942
6 1 0.164131 0.424148 0.398628
7 1 0.0645324 0.382908 0.367303
8 1 0.294674 0.946827 0.360972
9 1 0.111875 0.465576 0.307897
10 1 0.372017 0.284554 0.33136
11 1 0.977718 0.84879 0.133806
12 1 0.392417 0.721795 0.460185
13 1 0.212936 0.140032 0.54231
14 1 0.320809 0.380929 0.565635