ITEM: TIMESTEP
0
ITEM: NUMBER OF ATOMS
20
ITEM: BOX BOUNDS ff ff ff
-5.0000000000000000e+00 5.0000000000000000e+00
-5.0000000000000000e+00 5.0000000000000000e+00
-5.0000000000000000e+00 5.0000000000000000e+00
ITEM: ATOMS id type xs ys zs
1 1 0.0206785 0.543967 0.461289
2 1 0.888018 0.926397 0.961711
3 1 0.481679 0.581046 0.63584
4 1 0.558927 0.883308 0.753664
5 1 0.834649 0.945951 0.590338
6 1 0.814325 0.367195 0.441945
7 1 0.769252 0.819449 0.471986
8 1 0.665637 0.362614 0.450155
9 1 0.75146 0.796435 0.678941
10 1 0.959103 0.651499 0.743814
11 1 0.282239 0.593463 0.335516
12 1 0.0243281 0.882526 0.615914
13 1 0.663507 0.560637 0.629085
14 1 0.025709 0.0911467 0.902847
15 1 0.154552 0.549198 0.372829
16 1 0.136255 0.0308092 0.809973
17 1 0.208979 0.315844 0.389998
18 1 0.703223 0.0758193 0.294843
19 1 0.426544 0.927468 0.948367
20 1 0.204843 0.799778 0.872828
ITEM: TIMESTEP
1
ITEM: NUMBER OF ATOMS
20
ITEM: BOX BOUNDS ff ff ff
-5.0000000000000000e+00 5.0000000000000000e+00
-5.0000000000000000e+00 5.0000000000000000e+00
-5.0000000000000000e+00 5.0000000000000000e+00
ITEM: ATOMS id type xs ys zs
1 1 0.0250139 0.544112 0.458461
2 1 0.887994 0.926368 0.96165
3 1 0.483857 0.58084 0.635736
4 1 0.559249 0.88311 0.753715
5 1 0.833249 0.943355 0.589808
6 1 0.806402 0.366979 0.442412
7 1 0.769858 0.820669 0.474197
8 1 0.6735 0.362971 0.449828
9 1 0.751791 0.797627 0.677571
10 1 0.958893 0.651632 0.743741
11 1 0.272239 0.589928 0.33849
12 1 0.0243577 0.882494 0.615936
13 1 0.661504 0.560988 0.629057
14 1 0.0298918 0.0888651 0.899332
15 1 0.160338 0.55215 0.37275
16 1 0.132073 0.033094 0.813484
17 1 0.208892 0.316305 0.389979
18 1 0.703226 0.0758774 0.294874
19 1 0.426607 0.927321 0.948033
20 1 0.204973 0.799864 0.87283
ITEM: TIMESTEP
2
ITEM: NUMBER OF ATOMS
20
ITEM: BOX BOUNDS ff ff ff
-5.0000000000000000e+00 5.0000000000000000e+00
-5.0000000000000000e+00 5.0000000000000000e+00
-5.0000000000000000e+00 5.0000000000000000e+00
ITEM: ATOMS id type xs ys zs
1 1 0.0285753 0.54427 0.456192
2 1 0.887975 0.926344 0.961601
3 1 0.485778 0.580657 0.635647
4 1 0.55951 0.882951 0.753753
5 1 0.832008 0.941053 0.589314
6 1 0.797482 0.366731 0.442932
7 1 0.770406 0.821772 0.476152
8 1 0.682368 0.363332 0.44942
9 1 0.752109 0.79868 0.676365
10 1 0.958723 0.65174 0.743682
11 1 0.262239 0.586458 0.341543
12 1 0.0243818 0.882468 0.615954
13 1 0.659726 0.561286 0.62904
14 1 0.0343272 0.0864453 0.895605
15 1 0.166872 0.555102 0.372019
16 1 0.127639 0.0355163 0.817209
17 1 0.208825 0.316683 0.389962
18 1 0.703229 0.0759254 0.294899
19 1 0.426658 0.927202 0.947762
20 1 0.205079 0.799934 0.872832
ITEM: TIMESTEP
3
ITEM: NUMBER OF ATOMS
20
ITEM: BOX BOUNDS ff ff ff
-5.0000000000000000e+00 5.0000000000000000e+00
-5.0000000000000000e+00 5.0000000000000000e+00
-5.0000000000000000e+00 5.0000000000000000e+00
ITEM: ATOMS id type xs ys zs
1 1 0.0288865 0.544292 0.456005
2 1 0.887973 0.926342 0.961596
3 1 0.485992 0.580637 0.635637
4 1 0.559534 0.882936 0.753757
5 1 0.831869 0.940794 0.589252
6 1 0.796839 0.366714 0.442971
7 1 0.77047 0.821901 0.476371
8 1 0.683006 0.363359 0.449392
9 1 0.75215 0.798796 0.676232
10 1 0.958708 0.65175 0.743676
11 1 0.265979 0.587681 0.340353
12 1 0.0243841 0.882466 0.615956
13 1 0.659526 0.561316 0.62904
14 1 0.0350525 0.0860496 0.894996
15 1 0.162828 0.553823 0.373401
16 1 0.126913 0.0359123 0.817818
17 1 0.208819 0.316718 0.389961
18 1 0.703229 0.07593 0.294901
19 1 0.426663 0.927191 0.947737
20 1 0.205089 0.79994 0.872832
ITEM: TIMESTEP
4
ITEM: NUMBER OF ATOMS
20
ITEM: BOX BOUNDS ff ff ff
-5.0000000000000000e+00 5.0000000000000000e+00
-5.0000000000000000e+00 5.0000000000000000e+00
-5.0000000000000000e+00 5.0000000000000000e+00
ITEM: ATOMS id type xs ys zs
1 1 0.0312894 0.544448 0.454544
2 1 0.887961 0.926328 0.961567
3 1 0.487417 0.580498 0.635574
4 1 0.55969 0.882844 0.753777
5 1 0.830936 0.939066 0.588836
6 1 0.794011 0.366647 0.443147
7 1 0.770899 0.822767 0.477833
8 1 0.685798 0.363493 0.449283
9 1 0.752426 0.799574 0.675344
10 1 0.958609 0.651814 0.743641
11 1 0.264721 0.587228 0.340786
12 1 0.0243986 0.882451 0.615967
13 1 0.658191 0.561518 0.629038
14 1 0.0400525 0.0833213 0.890795
15 1 0.161736 0.553898 0.37446
16 1 0.121914 0.0386421 0.822017
17 1 0.208782 0.316951 0.389951
18 1 0.703232 0.07596 0.294917
19 1 0.426694 0.927119 0.947575
20 1 0.205152 0.799982 0.872833
ITEM: TIMESTEP
5
ITEM: NUMBER OF ATOMS
20
ITEM: BOX BOUNDS ff ff ff
-5.0000000000000000e+00 5.0000000000000000e+00
-5.0000000000000000e+00 5.0000000000000000e+00
-5.0000000000000000e+00 5.0000000000000000e+00
ITEM: ATOMS id type xs ys zs
1 1 0.0325992 0.544534 0.453748
2 1 0.887955 0.92632 0.961552
3 1 0.488174 0.580424 0.63554
4 1 0.55977 0.882797 0.753787
5 1 0.830439 0.938144 0.588609
6 1 0.794982 0.366683 0.4431
7 1 0.77113 0.823233 0.478612
8 1 0.684808 0.36349 0.449363
9 1 0.752576 0.799987 0.674873
10 1 0.958558 0.651847 0.743623
11 1 0.263989 0.586969 0.341038
12 1 0.0244061 0.882443 0.615972
13 1 0.65748 0.561625 0.629039
14 1 0.042287 0.0821021 0.888917
15 1 0.161185 0.553958 0.37502
16 1 0.11968 0.0398621 0.823894
17 1 0.208763 0.31707 0.389947
18 1 0.703233 0.0759754 0.294925
19 1 0.426709 0.927083 0.947492
20 1 0.205185 0.800004 0.872834
ITEM: TIMESTEP
6
ITEM: NUMBER OF ATOMS
20
ITEM: BOX BOUNDS ff ff ff
-5.0000000000000000e+00 5.0000000000000000e+00
-5.0000000000000000e+00 5.0000000000000000e+00
-5.0000000000000000e+00 5.0000000000000000e+00
ITEM: ATOMS id type xs ys zs
1 1 0.0351001 0.544702 0.452232
2 1 0.887945 0.926308 0.961526
3 1 0.489565 0.580288 0.635479
4 1 0.559907 0.882716 0.753804
5 1 0.829522 0.936444 0.588175
6 1 0.797593 0.366772 0.442965
7 1 0.771563 0.824104 0.480049
8 1 0.682166 0.363458 0.449556
9 1 0.752862 0.800742 0.67401
10 1 0.958472 0.651904 0.743591
11 1 0.262692 0.586513 0.341488
12 1 0.0244189 0.88243 0.615982
13 1 0.656169 0.561816 0.629043
14 1 0.0420941 0.082208 0.889079
15 1 0.160028 0.554048 0.376111
16 1 0.119873 0.0397575 0.823731
17 1 0.208729 0.317277 0.389939
18 1 0.703235 0.076002 0.294939
19 1 0.426736 0.92702 0.947349
20 1 0.205241 0.800041 0.872835
ITEM: TIMESTEP
7
ITEM: NUMBER OF ATOMS
20
ITEM: BOX BOUNDS ff ff ff
-5.0000000000000000e+00 5.0000000000000000e+00
-5.0000000000000000e+00 5.0000000000000000e+00
-5.0000000000000000e+00 5.0000000000000000e+00
ITEM: ATOMS id type xs ys zs
1 1 0.0451001 0.54539 0.446188
2 1 0.88791 0.926265 0.961437
3 1 0.494822 0.579767 0.63525
4 1 0.560381 0.88244 0.753859
5 1 0.826028 0.929963 0.58644
6 1 0.794577 0.366732 0.443187
7 1 0.773243 0.827485 0.485526
8 1 0.68507 0.363696 0.449535
9 1 0.753985 0.803587 0.670758
10 1 0.958175 0.652102 0.743482
11 1 0.258322 0.58499 0.343034
12 1 0.0244636 0.882383 0.616014
13 1 0.651184 0.562522 0.629076
14 1 0.0363709 0.0853337 0.893886
15 1 0.154565 0.554192 0.380697
16 1 0.125598 0.0366363 0.818919
17 1 0.208608 0.318 0.389914
18 1 0.703242 0.0760936 0.294987
19 1 0.42683 0.926801 0.946854
20 1 0.205436 0.800169 0.872839
ITEM: TIMESTEP
8
ITEM: NUMBER OF ATOMS
20
ITEM: BOX BOUNDS ff ff ff
-5.0000000000000000e+00 5.0000000000000000e+00
-5.0000000000000000e+00 5.0000000000000000e+00
-5.0000000000000000e+00 5.0000000000000000e+00
ITEM: ATOMS id type xs ys zs
1 1 0.0541532 0.546036 0.440744
2 1 0.887882 0.926231 0.961368
3 1 0.499321 0.579317 0.635054
4 1 0.560748 0.882228 0.753901
5 1 0.823004 0.924353 0.584841
6 1 0.794904 0.366775 0.443203
7 1 0.774732 0.830482 0.490277
8 1 0.684655 0.363806 0.449673
9 1 0.754981 0.806003 0.667989
10 1 0.957945 0.652256 0.743397
11 1 0.254202 0.583604 0.344518
12 1 0.0244984 0.882347 0.616039
13 1 0.646898 0.563114 0.629119
14 1 0.0347748 0.0862066 0.895226
15 1 0.149765 0.554391 0.384725
16 1 0.127196 0.0357669 0.817575
17 1 0.20851 0.318568 0.389896
18 1 0.703247 0.076165 0.295025
19 1 0.426904 0.92663 0.946468
20 1 0.205588 0.800269 0.872843
ITEM: TIMESTEP
9
ITEM: NUMBER OF ATOMS
20
ITEM: BOX BOUNDS ff ff ff
-5.0000000000000000e+00 5.0000000000000000e+00
-5.0000000000000000e+00 5.0000000000000000e+00
-5.0000000000000000e+00 5.0000000000000000e+00
ITEM: ATOMS id type xs ys zs
1 1 0.0594641 0.546373 0.43756
2 1 0.887851 0.926194 0.961291
3 1 0.506121 0.578622 0.634762
4 1 0.561156 0.881998 0.753943
5 1 0.818267 0.91555 0.581874
6 1 0.798476 0.366908 0.443033
7 1 0.777232 0.8355 0.49782
8 1 0.680983 0.363841 0.450015
9 1 0.756618 0.809571 0.663857
10 1 0.957692 0.65243 0.7433
11 1 0.247289 0.581457 0.347137
12 1 0.024538 0.882307 0.616067
13 1 0.640336 0.563959 0.62924
14 1 0.0379392 0.0844815 0.892567
15 1 0.151526 0.555575 0.385359
16 1 0.124033 0.037496 0.820231
17 1 0.20839 0.319223 0.38988
18 1 0.703253 0.0762453 0.295067
19 1 0.426986 0.926437 0.946033
20 1 0.205759 0.800382 0.872847
ITEM: TIMESTEP
10
ITEM: NUMBER OF ATOMS
20
ITEM: BOX BOUNDS ff ff ff
-5.0000000000000000e+00 5.0000000000000000e+00
-5.0000000000000000e+00 5.0000000000000000e+00
-5.0000000000000000e+00 5.0000000000000000e+00
ITEM: ATOMS id type xs ys zs
1 1 0.059867 0.546312 0.437249
2 1 0.887834 0.926173 0.961248
3 1 0.510452 0.578177 0.634577
4 1 0.561384 0.88187 0.753966
5 1 0.815262 0.909969 0.579958
6 1 0.799454 0.366955 0.442998
7 1 0.778825 0.838703 0.502627
8 1 0.679949 0.363888 0.450146
9 1 0.757691 0.811827 0.661215
10 1 0.957551 0.652528 0.743246
11 1 0.246116 0.580992 0.34754
12 1 0.0245603 0.882285 0.616083
13 1 0.636139 0.564487 0.62933
14 1 0.040284 0.0832029 0.890596
15 1 0.152386 0.555745 0.385304
16 1 0.121689 0.0387768 0.822199
17 1 0.208321 0.319594 0.389872
18 1 0.703256 0.0762905 0.295091
19 1 0.427033 0.926328 0.945788
20 1 0.205856 0.800446 0.872849
ITEM: TIMESTEP
11
ITEM: NUMBER OF ATOMS
20
ITEM: BOX BOUNDS ff ff ff
-5.0000000000000000e+00 5.0000000000000000e+00
-5.0000000000000000e+00 5.0000000000000000e+00
-5.0000000000000000e+00 5.0000000000000000e+00
ITEM: ATOMS id type xs ys zs
1 1 0.0582071 0.546091 0.438146
2 1 0.887825 0.926161 0.961224
3 1 0.513441 0.577866 0.634448
4 1 0.56151 0.881801 0.753978
5 1 0.813624 0.906978 0.579577
6 1 0.79908 0.366958 0.443033
7 1 0.779478 0.840046 0.505053
8 1 0.68029 0.363938 0.450164
9 1 0.758488 0.813408 0.659312
10 1 0.957473 0.652583 0.743215
11 1 0.249048 0.581705 0.346331
12 1 0.0245728 0.882272 0.616092
13 1 0.633224 0.564842 0.629405
14 1 0.0417632 0.0823963 0.889353
15 1 0.151166 0.555049 0.385637
16 1 0.120211 0.0395847 0.823441
17 1 0.208282 0.319807 0.389868
18 1 0.703258 0.0763157 0.295104
19 1 0.427059 0.926267 0.94565
20 1 0.205911 0.800482 0.872851
ITEM: TIMESTEP
12
ITEM: NUMBER OF ATOMS
20
ITEM: BOX BOUNDS ff ff ff
-5.0000000000000000e+00 5.0000000000000000e+00
-5.0000000000000000e+00 5.0000000000000000e+00
-5.0000000000000000e+00 5.0000000000000000e+00
ITEM: ATOMS id type xs ys zs
1 1 0.054009 0.545637 0.440496
2 1 0.887815 0.926149 0.9612
3 1 0.51732 0.57746 0.634281
4 1 0.561634 0.881734 0.75399
5 1 0.813429 0.906918 0.583705
6 1 0.797253 0.366922 0.443154
7 1 0.778253 0.837752 0.503934
8 1 0.682084 0.364026 0.450096
9 1 0.75972 0.815693 0.656451
10 1 0.957395 0.652639 0.743183
11 1 0.252965 0.582698 0.344744
12 1 0.0245857 0.882259 0.616101
13 1 0.62942 0.56529 0.629518
14 1 0.0424635 0.0820147 0.888764
15 1 0.151501 0.554298 0.384894
16 1 0.119511 0.0399676 0.824028
17 1 0.208239 0.320028 0.389865
18 1 0.70326 0.0763414 0.295118
19 1 0.427086 0.926204 0.945509
20 1 0.205967 0.800519 0.872852
ITEM: TIMESTEP
13
ITEM: NUMBER OF ATOMS
20
ITEM: BOX BOUNDS ff ff ff
-5.0000000000000000e+00 5.0000000000000000e+00
-5.0000000000000000e+00 5.0000000000000000e+00
-5.0000000000000000e+00 5.0000000000000000e+00
ITEM: ATOMS id type xs ys zs
1 1 0.0539468 0.545617 0.44054
2 1 0.88781 0.926143 0.961188
3 1 0.517985 0.577396 0.634249
4 1 0.561687 0.881708 0.753994
5 1 0.812561 0.905525 0.585929
6 1 0.795633 0.366885 0.443256
7 1 0.777823 0.837014 0.504404
8 1 0.683687 0.364085 0.450017
9 1 0.760934 0.817791 0.653831
10 1 0.957361 0.652666 0.743168
11 1 0.252911 0.58266 0.344775
12 1 0.0245919 0.882253 0.616106
13 1 0.62879 0.56537 0.629525
14 1 0.0406202 0.0830209 0.890313
15 1 0.151644 0.554249 0.384827
16 1 0.121354 0.0389619 0.822479
17 1 0.208217 0.320139 0.389864
18 1 0.703261 0.0763537 0.295124
19 1 0.427099 0.926174 0.945441
20 1 0.205994 0.800537 0.872853
ITEM: TIMESTEP
14
ITEM: NUMBER OF ATOMS
20
ITEM: BOX BOUNDS ff ff ff
-5.0000000000000000e+00 5.0000000000000000e+00
-5.0000000000000000e+00 5.0000000000000000e+00
-5.0000000000000000e+00 5.0000000000000000e+00
ITEM: ATOMS id type xs ys zs
1 1 0.0544917 0.545648 0.440251
2 1 0.887803 0.926134 0.961169
3 1 0.517581 0.577454 0.634259
4 1 0.56177 0.881669 0.754002
5 1 0.810605 0.902263 0.58921
6 1 0.795006 0.366875 0.443301
7 1 0.777364 0.836327 0.50623
8 1 0.684284 0.364133 0.450011
9 1 0.76321 0.821684 0.648849
10 1 0.957305 0.652712 0.743141
11 1 0.252514 0.582515 0.344955
12 1 0.0246023 0.882243 0.616113
13 1 0.629253 0.565335 0.629473
14 1 0.040982 0.0828239 0.890009
15 1 0.151543 0.554181 0.38495
16 1 0.120993 0.0391599 0.822782
17 1 0.208179 0.320329 0.389862
18 1 0.703262 0.0763746 0.295135
19 1 0.427121 0.926122 0.945326
20 1 0.20604 0.800567 0.872855
ITEM: TIMESTEP
15
ITEM: NUMBER OF ATOMS
20
ITEM: BOX BOUNDS ff ff ff
-5.0000000000000000e+00 5.0000000000000000e+00
-5.0000000000000000e+00 5.0000000000000000e+00
-5.0000000000000000e+00 5.0000000000000000e+00
ITEM: ATOMS id type xs ys zs
1 1 0.0546514 0.545638 0.440195
2 1 0.887792 0.92612 0.96114
3 1 0.517687 0.577463 0.634243
4 1 0.561885 0.881617 0.754017
5 1 0.811276 0.903599 0.590746
6 1 0.796771 0.366928 0.443204
7 1 0.776273 0.834591 0.509125
8 1 0.682476 0.364137 0.450165
9 1 0.76343 0.821995 0.644608
10 1 0.957224 0.65278 0.743101
11 1 0.252172 0.58237 0.345129
12 1 0.0246181 0.882227 0.616124
13 1 0.629232 0.565358 0.629423
14 1 0.0420378 0.0822485 0.889121
15 1 0.151798 0.554056 0.384853
16 1 0.119938 0.0397369 0.823668
17 1 0.20812 0.320619 0.38986
18 1 0.703265 0.0764062 0.295152
19 1 0.427154 0.926044 0.945152
20 1 0.20611 0.800613 0.872857
ITEM: TIMESTEP
16
ITEM: NUMBER OF ATOMS
20
ITEM: BOX BOUNDS ff ff ff
-5.0000000000000000e+00 5.0000000000000000e+00
-5.0000000000000000e+00 5.0000000000000000e+00
-5.0000000000000000e+00 5.0000000000000000e+00
ITEM: ATOMS id type xs ys zs
1 1 0.0550406 0.54561 0.440068
2 1 0.887762 0.926083 0.961063
3 1 0.517984 0.577487 0.634199
4 1 0.562184 0.881483 0.754058
5 1 0.814631 0.909725 0.591705
6 1 0.798795 0.367004 0.443111
7 1 0.773675 0.830663 0.518672
8 1 0.680333 0.364214 0.450415
9 1 0.762148 0.819558 0.634608
10 1 0.957007 0.652961 0.742993
11 1 0.251889 0.582162 0.345344
12 1 0.0246604 0.882186 0.616153
13 1 0.629165 0.56542 0.629289
14 1 0.0427039 0.081887 0.888561
15 1 0.151883 0.553546 0.384822
16 1 0.119273 0.0401025 0.824225
17 1 0.207964 0.321394 0.389853
18 1 0.703271 0.0764904 0.295196
19 1 0.427243 0.925836 0.944687
20 1 0.206298 0.800737 0.872863
ITEM: TIMESTEP
17
ITEM: NUMBER OF ATOMS
20
ITEM: BOX BOUNDS ff ff ff
-5.0000000000000000e+00 5.0000000000000000e+00
-5.0000000000000000e+00 5.0000000000000000e+00
-5.0000000000000000e+00 5.0000000000000000e+00
ITEM: ATOMS id type xs ys zs
1 1 0.0550986 0.545592 0.440071
2 1 0.887751 0.926069 0.961033
3 1 0.518003 0.577507 0.634187
4 1 0.562295 0.881433 0.754075
5 1 0.815463 0.911233 0.591705
6 1 0.798505 0.367008 0.44314
7 1 0.77294 0.829685 0.523038
8 1 0.680578 0.364269 0.450445
9 1 0.761852 0.818934 0.630435
10 1 0.956924 0.65303 0.742951
11 1 0.252016 0.58215 0.345333
12 1 0.0246766 0.88217 0.616165
13 1 0.629235 0.565435 0.629233
14 1 0.0418748 0.0823402 0.889257
15 1 0.151772 0.553288 0.38485
16 1 0.120103 0.0396509 0.823527
17 1 0.207903 0.321694 0.389851
18 1 0.703273 0.0765228 0.295213
19 1 0.427277 0.925756 0.944508
20 1 0.20637 0.800784 0.872866
ITEM: TIMESTEP
18
ITEM: NUMBER OF ATOMS
20
ITEM: BOX BOUNDS ff ff ff
-5.0000000000000000e+00 5.0000000000000000e+00
-5.0000000000000000e+00 5.0000000000000000e+00
-5.0000000000000000e+00 5.0000000000000000e+00
ITEM: ATOMS id type xs ys zs
1 1 0.0550689 0.545584 0.440096
2 1 0.887748 0.926066 0.961027
3 1 0.517984 0.577513 0.634185
4 1 0.562317 0.881422 0.754079
5 1 0.815486 0.911273 0.591634
6 1 0.798141 0.367001 0.443165
7 1 0.772931 0.829695 0.523408
8 1 0.680932 0.364288 0.450433
9 1 0.761795 0.818863 0.630178
10 1 0.956907 0.653045 0.742942
11 1 0.252085 0.582159 0.345315
12 1 0.0246801 0.882167 0.616167
13 1 0.629273 0.565436 0.629219
14 1 0.041623 0.0824778 0.889468
15 1 0.151749 0.553223 0.384848
16 1 0.120355 0.0395136 0.823315
17 1 0.20789 0.321759 0.38985
18 1 0.703274 0.0765297 0.295217
19 1 0.427285 0.925738 0.94447
20 1 0.206386 0.800794 0.872867
ITEM: TIMESTEP
19
ITEM: NUMBER OF ATOMS
20
ITEM: BOX BOUNDS ff ff ff
-5.0000000000000000e+00 5.0000000000000000e+00
-5.0000000000000000e+00 5.0000000000000000e+00
-5.0000000000000000e+00 5.0000000000000000e+00
ITEM: ATOMS id type xs ys zs
1 1 0.0547782 0.545549 0.440283
2 1 0.887743 0.926059 0.961012
3 1 0.517853 0.577539 0.634184
4 1 0.56236 0.8814 0.75409
5 1 0.814714 0.909866 0.591143
6 1 0.795772 0.366952 0.443318
7 1 0.773772 0.830934 0.520379
8 1 0.683277 0.36437 0.450313
9 1 0.761633 0.818978 0.633798
10 1 0.956866 0.653079 0.74292
11 1 0.252408 0.582227 0.345209
12 1 0.0246886 0.882158 0.616173
13 1 0.629452 0.56543 0.629182
14 1 0.0410092 0.0828131 0.889984
15 1 0.151756 0.553033 0.384779
16 1 0.120969 0.0391791 0.822798
17 1 0.207857 0.321922 0.389849
18 1 0.703275 0.0765465 0.295226
19 1 0.427303 0.925696 0.944376
20 1 0.206424 0.800819 0.872868
ITEM: TIMESTEP
20
ITEM: NUMBER OF ATOMS
20
ITEM: BOX BOUNDS ff ff ff
-5.0000000000000000e+00 5.0000000000000000e+00
-5.0000000000000000e+00 5.0000000000000000e+00
-5.0000000000000000e+00 5.0000000000000000e+00
ITEM: ATOMS id type xs ys zs
1 1 0.0546332 0.545527 0.440384
2 1 0.887738 0.926053 0.960999
3 1 0.51788 0.577547 0.634177
4 1 0.562399 0.88138 0.7541
5 1 0.813872 0.908346 0.590795
6 1 0.794652 0.36693 0.443393
7 1 0.774198 0.831733 0.520829
8 1 0.684375 0.36442 0.450267
9 1 0.761962 0.819649 0.633788
10 1 0.956828 0.65311 0.7429
11 1 0.252561 0.582248 0.345169
12 1 0.0246963 0.882151 0.616178
13 1 0.62947 0.565441 0.629154
14 1 0.0411341 0.0827453 0.889879
15 1 0.151785 0.55289 0.384729
16 1 0.120845 0.0392476 0.822903
17 1 0.207827 0.322072 0.389847
18 1 0.703276 0.0765618 0.295234
19 1 0.427319 0.925657 0.944289
20 1 0.206459 0.800842 0.872869
ITEM: TIMESTEP
21
ITEM: NUMBER OF ATOMS
20
ITEM: BOX BOUNDS ff ff ff
-5.0000000000000000e+00 5.0000000000000000e+00
-5.0000000000000000e+00 5.0000000000000000e+00
-5.0000000000000000e+00 5.0000000000000000e+00
ITEM: ATOMS id type xs ys zs
1 1 0.0545981 0.545515 0.440421
2 1 0.887733 0.926047 0.960986
3 1 0.517937 0.577551 0.634169
4 1 0.562434 0.881361 0.75411
5 1 0.813731 0.9081 0.59078
6 1 0.794762 0.366937 0.44339
7 1 0.774195 0.831778 0.521369
8 1 0.684246 0.364439 0.450296
9 1 0.762028 0.819805 0.633348
10 1 0.956794 0.653138 0.742881
11 1 0.252617 0.582242 0.345164
12 1 0.0247033 0.882144 0.616183
13 1 0.629453 0.565454 0.629131
14 1 0.0413387 0.082634 0.889707
15 1 0.151798 0.552774 0.384705
16 1 0.12064 0.0393597 0.823074
17 1 0.207799 0.32221 0.389846
18 1 0.703277 0.0765759 0.295241
19 1 0.427334 0.925622 0.944211
20 1 0.206491 0.800863 0.87287
ITEM: TIMESTEP
22
ITEM: NUMBER OF ATOMS
20
ITEM: BOX BOUNDS ff ff ff
-5.0000000000000000e+00 5.0000000000000000e+00
-5.0000000000000000e+00 5.0000000000000000e+00
-5.0000000000000000e+00 5.0000000000000000e+00
ITEM: ATOMS id type xs ys zs
1 1 0.0546068 0.545514 0.440418
2 1 0.887733 0.926046 0.960985
3 1 0.517943 0.577551 0.634168
4 1 0.562438 0.881359 0.754111
5 1 0.813813 0.908251 0.590821
6 1 0.79487 0.36694 0.443384
7 1 0.774144 0.831686 0.521375
8 1 0.684136 0.364439 0.450305
9 1 0.761988 0.819739 0.633311
10 1 0.95679 0.653142 0.742879
11 1 0.252612 0.582238 0.345169
12 1 0.0247042 0.882143 0.616184
13 1 0.629452 0.565456 0.629128
14 1 0.04135 0.0826279 0.889697
15 1 0.151798 0.552762 0.384706
16 1 0.120629 0.0393658 0.823084
17 1 0.207795 0.322227 0.389846
18 1 0.703277 0.0765776 0.295242
19 1 0.427336 0.925617 0.944201
20 1 0.206495 0.800866 0.872871
ITEM: TIMESTEP
23
ITEM: NUMBER OF ATOMS
20
ITEM: BOX BOUNDS ff ff ff
-5.0000000000000000e+00 5.0000000000000000e+00
-5.0000000000000000e+00 5.0000000000000000e+00
-5.0000000000000000e+00 5.0000000000000000e+00
ITEM: ATOMS id type xs ys zs
1 1 0.0546722 0.545515 0.440388
2 1 0.887731 0.926044 0.960979
3 1 0.51796 0.577554 0.634165
4 1 0.562454 0.881351 0.754116
5 1 0.814304 0.909148 0.591055
6 1 0.795421 0.366954 0.443352
7 1 0.773855 0.831168 0.521296
8 1 0.683576 0.364437 0.450349
9 1 0.761749 0.819339 0.633195
10 1 0.956774 0.653155 0.74287
11 1 0.252564 0.582214 0.345196
12 1 0.0247075 0.88214 0.616186
13 1 0.629454 0.565461 0.629117
14 1 0.0413438 0.0826314 0.889702
15 1 0.151797 0.552724 0.384712
16 1 0.120635 0.0393626 0.823078
17 1 0.207782 0.322291 0.389845
18 1 0.703278 0.0765841 0.295246
19 1 0.427343 0.925601 0.944165
20 1 0.206509 0.800875 0.872871
ITEM: TIMESTEP
24
ITEM: NUMBER OF ATOMS
20
ITEM: BOX BOUNDS ff ff ff
-5.0000000000000000e+00 5.0000000000000000e+00
-5.0000000000000000e+00 5.0000000000000000e+00
-5.0000000000000000e+00 5.0000000000000000e+00
ITEM: ATOMS id type xs ys zs
1 1 0.0547617 0.545511 0.440354
2 1 0.887726 0.926038 0.960967
3 1 0.517985 0.577562 0.634158
4 1 0.56249 0.881332 0.754126
5 1 0.814346 0.909237 0.591133
6 1 0.795586 0.366963 0.443347
7 1 0.773724 0.830997 0.521977
8 1 0.683389 0.364456 0.450382
9 1 0.761758 0.819374 0.632524
10 1 0.956739 0.653184 0.742851
11 1 0.25249 0.582171 0.345243
12 1 0.0247147 0.882133 0.616191
13 1 0.62947 0.565471 0.62909
14 1 0.0413405 0.0826335 0.889705
15 1 0.151817 0.552631 0.384709
16 1 0.120639 0.0393612 0.823075
17 1 0.207753 0.322436 0.389844
18 1 0.703279 0.0765986 0.295253
19 1 0.427359 0.925565 0.944083
20 1 0.206542 0.800897 0.872872
ITEM: TIMESTEP
25
ITEM: NUMBER OF ATOMS
20
ITEM: BOX BOUNDS ff ff ff
-5.0000000000000000e+00 5.0000000000000000e+00
-5.0000000000000000e+00 5.0000000000000000e+00
-5.0000000000000000e+00 5.0000000000000000e+00
ITEM: ATOMS id type xs ys zs
1 1 0.0547697 0.545509 0.440355
2 1 0.887724 0.926036 0.960963
3 1 0.51799 0.577564 0.634156
4 1 0.5625 0.881327 0.754129
5 1 0.814388 0.909316 0.591151
6 1 0.795531 0.366963 0.443352
7 1 0.773714 0.830967 0.521824
8 1 0.683439 0.364464 0.450385
9 1 0.761701 0.81931 0.632685
10 1 0.956728 0.653193 0.742845
11 1 0.25249 0.582164 0.345249
12 1 0.024717 0.882131 0.616193
13 1 0.629478 0.565474 0.629082
14 1 0.0413415 0.0826331 0.889704
15 1 0.15182 0.552597 0.384705
16 1 0.120638 0.0393618 0.823075
17 1 0.207744 0.322481 0.389843
18 1 0.703279 0.0766031 0.295255
19 1 0.427364 0.925553 0.944058
20 1 0.206553 0.800903 0.872873
ITEM: TIMESTEP
26
ITEM: NUMBER OF ATOMS
20
ITEM: BOX BOUNDS ff ff ff
-5.0000000000000000e+00 5.0000000000000000e+00
-5.0000000000000000e+00 5.0000000000000000e+00
-5.0000000000000000e+00 5.0000000000000000e+00
ITEM: ATOMS id type xs ys zs
1 1 0.0548006 0.545498 0.440361
2 1 0.887718 0.926028 0.960946
3 1 0.518017 0.577575 0.634147
4 1 0.562547 0.881302 0.754142
5 1 0.814366 0.909288 0.591179
6 1 0.79541 0.366966 0.443366
7 1 0.773716 0.830964 0.521699
8 1 0.683532 0.364497 0.450408
9 1 0.761615 0.819277 0.632899
10 1 0.956682 0.653232 0.742819
11 1 0.252487 0.582134 0.345275
12 1 0.0247266 0.882121 0.616199
13 1 0.629507 0.565487 0.629047
14 1 0.0413435 0.0826325 0.889702
15 1 0.151839 0.552451 0.384686
16 1 0.120636 0.0393634 0.823076
17 1 0.207704 0.322675 0.389841
18 1 0.703281 0.0766223 0.295266
19 1 0.427385 0.925504 0.943949
20 1 0.206597 0.800932 0.872874
ITEM: TIMESTEP
27
ITEM: NUMBER OF ATOMS
20
ITEM: BOX BOUNDS ff ff ff
-5.0000000000000000e+00 5.0000000000000000e+00
-5.0000000000000000e+00 5.0000000000000000e+00
-5.0000000000000000e+00 5.0000000000000000e+00
ITEM: ATOMS id type xs ys zs
1 1 0.0549747 0.545431 0.440403
2 1 0.88768 0.92598 0.960845
3 1 0.518187 0.57764 0.634094
4 1 0.562829 0.881152 0.754224
5 1 0.814053 0.908808 0.591336
6 1 0.795194 0.366997 0.443419
7 1 0.773698 0.830973 0.521867
8 1 0.683581 0.364685 0.450575
9 1 0.761295 0.819363 0.633281
10 1 0.956398 0.653468 0.742661
11 1 0.252481 0.581953 0.34543
12 1 0.0247855 0.882064 0.61624
13 1 0.629677 0.565567 0.628834
14 1 0.0413469 0.0826333 0.889698
15 1 0.151961 0.551555 0.384569
16 1 0.120635 0.0393682 0.823075
17 1 0.207464 0.323858 0.38983
18 1 0.70329 0.0767396 0.295327
19 1 0.427513 0.925207 0.943288
20 1 0.206866 0.801107 0.872885
ITEM: TIMESTEP
28
ITEM: NUMBER OF ATOMS
20
ITEM: BOX BOUNDS ff ff ff
-5.0000000000000000e+00 5.0000000000000000e+00
-5.0000000000000000e+00 5.0000000000000000e+00
-5.0000000000000000e+00 5.0000000000000000e+00
ITEM: ATOMS id type xs ys zs
1 1 0.0563578 0.544866 0.440811
2 1 0.887363 0.925575 0.959992
3 1 0.519661 0.578178 0.633642
4 1 0.565211 0.879891 0.754912
5 1 0.813042 0.90771 0.593474
6 1 0.795639 0.367303 0.443726
7 1 0.772439 0.829179 0.524264
8 1 0.681735 0.366225 0.452133
9 1 0.758082 0.819011 0.6347
10 1 0.954007 0.655453 0.741338
11 1 0.25253 0.580462 0.346697
12 1 0.0252799 0.881582 0.616586
13 1 0.631061 0.566248 0.627045
14 1 0.0413385 0.0826612 0.889693
15 1 0.152979 0.54395 0.383573
16 1 0.120664 0.0393882 0.82303
17 1 0.205428 0.333858 0.38973
18 1 0.703364 0.0777257 0.295847
19 1 0.428594 0.922702 0.937718
20 1 0.209134 0.802582 0.872972
ITEM: TIMESTEP
29
ITEM: NUMBER OF ATOMS
20
ITEM: BOX BOUNDS ff ff ff
-5.0000000000000000e+00 5.0000000000000000e+00
-5.0000000000000000e+00 5.0000000000000000e+00
-5.0000000000000000e+00 5.0000000000000000e+00
ITEM: ATOMS id type xs ys zs
1 1 0.0578785 0.544306 0.441132
2 1 0.887047 0.925173 0.959146
3 1 0.521106 0.578715 0.633195
4 1 0.567577 0.878638 0.755595
5 1 0.812053 0.906638 0.595556
6 1 0.794858 0.367596 0.44412
7 1 0.771244 0.827452 0.526325
8 1 0.681126 0.367767 0.45359
9 1 0.754816 0.818589 0.636472
10 1 0.951634 0.657424 0.740024
11 1 0.252453 0.578935 0.348005
12 1 0.0257705 0.881104 0.616928
13 1 0.632456 0.566922 0.625268
14 1 0.041353 0.0826763 0.889669
15 1 0.153984 0.536373 0.38262
16 1 0.120669 0.0394205 0.823005
17 1 0.203391 0.343858 0.389629
18 1 0.703437 0.0787038 0.296362
19 1 0.429671 0.920214 0.932184
20 1 0.211388 0.804046 0.873059
ITEM: TIMESTEP
30
ITEM: NUMBER OF ATOMS
20
ITEM: BOX BOUNDS ff ff ff
-5.0000000000000000e+00 5.0000000000000000e+00
-5.0000000000000000e+00 5.0000000000000000e+00
-5.0000000000000000e+00 5.0000000000000000e+00
ITEM: ATOMS id type xs ys zs
1 1 0.0586146 0.544147 0.440979
2 1 0.886974 0.925079 0.958949
3 1 0.521439 0.57884 0.633091
4 1 0.568131 0.878345 0.755752
5 1 0.811559 0.905934 0.595921
6 1 0.793688 0.367665 0.444294
7 1 0.771147 0.827327 0.526662
8 1 0.681973 0.368128 0.453848
9 1 0.754125 0.818671 0.637158
10 1 0.95108 0.657883 0.739718
11 1 0.252081 0.578423 0.348439
12 1 0.0258841 0.880994 0.617007
13 1 0.632784 0.567078 0.624854
14 1 0.0413702 0.0826723 0.889652
15 1 0.154228 0.53463 0.382501
16 1 0.120657 0.0394355 0.823011
17 1 0.202878 0.346349 0.389599
18 1 0.703454 0.0789302 0.296482
19 1 0.429926 0.919631 0.930888
20 1 0.211918 0.804388 0.87308
ITEM: TIMESTEP
31
ITEM: NUMBER OF ATOMS
20
ITEM: BOX BOUNDS ff ff ff
-5.0000000000000000e+00 5.0000000000000000e+00
-5.0000000000000000e+00 5.0000000000000000e+00
-5.0000000000000000e+00 5.0000000000000000e+00
ITEM: ATOMS id type xs ys zs
1 1 0.0592327 0.544079 0.440665
2 1 0.886961 0.925064 0.958917
3 1 0.521508 0.578859 0.633073
4 1 0.568231 0.878293 0.755772
5 1 0.811442 0.90576 0.595967
6 1 0.793803 0.367676 0.444296
7 1 0.77117 0.827349 0.526588
8 1 0.681805 0.368194 0.45392
9 1 0.753976 0.818704 0.637439
10 1 0.950986 0.65796 0.739667
11 1 0.251503 0.578098 0.348705
12 1 0.0259012 0.880978 0.617019
13 1 0.632826 0.567105 0.624787
14 1 0.04136 0.0826786 0.88966
15 1 0.154395 0.534173 0.382591
16 1 0.120667 0.0394308 0.823001
17 1 0.202686 0.34721 0.389577
18 1 0.703457 0.0789643 0.2965
19 1 0.429982 0.919525 0.930654
20 1 0.212018 0.804448 0.873086
ITEM: TIMESTEP
32
ITEM: NUMBER OF ATOMS
20
ITEM: BOX BOUNDS ff ff ff
-5.0000000000000000e+00 5.0000000000000000e+00
-5.0000000000000000e+00 5.0000000000000000e+00
-5.0000000000000000e+00 5.0000000000000000e+00
ITEM: ATOMS id type xs ys zs
1 1 0.061566 0.543808 0.439931
2 1 0.886835 0.924909 0.958589
3 1 0.521996 0.579078 0.632902
4 1 0.569287 0.877742 0.755973
5 1 0.810907 0.905162 0.596937
6 1 0.792543 0.367801 0.444531
7 1 0.770453 0.826516 0.528697
8 1 0.682522 0.368886 0.454461
9 1 0.752644 0.818919 0.63703
10 1 0.950009 0.658761 0.739137
11 1 0.250539 0.576972 0.349745
12 1 0.0260757 0.880816 0.617143
13 1 0.633489 0.567355 0.624076
14 1 0.0414527 0.0826362 0.889578
15 1 0.155422 0.525687 0.382748
16 1 0.120581 0.0394898 0.823067
17 1 0.200441 0.35721 0.389314
18 1 0.703484 0.0793106 0.296683
19 1 0.430587 0.918416 0.928198
20 1 0.213075 0.805073 0.873145
ITEM: TIMESTEP
33
ITEM: NUMBER OF ATOMS
20
ITEM: BOX BOUNDS ff ff ff
-5.0000000000000000e+00 5.0000000000000000e+00
-5.0000000000000000e+00 5.0000000000000000e+00
-5.0000000000000000e+00 5.0000000000000000e+00
ITEM: ATOMS id type xs ys zs
1 1 0.0637084 0.543571 0.439308
2 1 0.88671 0.924755 0.958265
3 1 0.522528 0.57929 0.63273
4 1 0.570332 0.877198 0.75617
5 1 0.810532 0.904822 0.597908
6 1 0.791834 0.367919 0.444714
7 1 0.769807 0.825645 0.530007
8 1 0.682695 0.369576 0.455044
9 1 0.751108 0.81893 0.637389
10 1 0.949043 0.659552 0.738613
11 1 0.249398 0.575756 0.350839
12 1 0.026248 0.880657 0.617265
13 1 0.634095 0.567607 0.623378
14 1 0.0415009 0.082618 0.889534
15 1 0.156819 0.517254 0.382738
16 1 0.12054 0.0395245 0.823095
17 1 0.198193 0.36721 0.389049
18 1 0.703512 0.0796527 0.296864
19 1 0.431186 0.917319 0.925769
20 1 0.214122 0.805691 0.873204
ITEM: TIMESTEP
34
ITEM: NUMBER OF ATOMS
20
ITEM: BOX BOUNDS ff ff ff
-5.0000000000000000e+00 5.0000000000000000e+00
-5.0000000000000000e+00 5.0000000000000000e+00
-5.0000000000000000e+00 5.0000000000000000e+00
ITEM: ATOMS id type xs ys zs
1 1 0.0657647 0.543342 0.43871
2 1 0.886592 0.924609 0.957957
3 1 0.523142 0.579481 0.632557
4 1 0.571327 0.87668 0.756357
5 1 0.810332 0.904744 0.598805
6 1 0.792371 0.368013 0.444774