ITEM: TIMESTEP
0
ITEM: NUMBER OF ATOMS
14
ITEM: BOX BOUNDS ff ff ff
-5.0000000000000000e+00 5.0000000000000000e+00
-5.0000000000000000e+00 5.0000000000000000e+00
-5.0000000000000000e+00 5.0000000000000000e+00
ITEM: ATOMS id type xs ys zs
1 1 0.255791 0.0758187 0.284176
2 1 0.140539 0.0374135 0.808237
3 1 0.0430986 0.358407 0.751016
4 1 0.324545 0.631836 0.268767
5 1 0.160001 0.132886 0.414337
6 1 0.769051 0.438269 0.990601
7 1 0.0319211 0.49802 0.217179
8 1 0.127946 0.393159 0.828501
9 1 0.608668 0.887823 0.642289
10 1 0.943513 0.620774 0.354038
11 1 0.31491 0.686201 0.974407
12 1 0.862307 0.797535 0.178263
13 1 0.0650798 0.796862 0.857694
14 1 0.258353 0.144493 0.494621
ITEM: TIMESTEP
1
ITEM: NUMBER OF ATOMS
14
ITEM: BOX BOUNDS ff ff ff
-5.0000000000000000e+00 5.0000000000000000e+00
-5.0000000000000000e+00 5.0000000000000000e+00
-5.0000000000000000e+00 5.0000000000000000e+00
ITEM: ATOMS id type xs ys zs
1 1 0.255113 0.0762924 0.285306
2 1 0.140539 0.0374351 0.808225
3 1 0.0468508 0.35993 0.754434
4 1 0.324532 0.631829 0.268765
5 1 0.165001 0.132994 0.416945
6 1 0.76905 0.43827 0.990601
7 1 0.0319357 0.498023 0.217183
8 1 0.124204 0.391623 0.825079
9 1 0.608668 0.887822 0.642288
10 1 0.943491 0.62082 0.353993
11 1 0.314884 0.686206 0.974393
12 1 0.862327 0.79749 0.178308
13 1 0.0651041 0.796847 0.857704
14 1 0.254024 0.143917 0.490899
ITEM: TIMESTEP
2
ITEM: NUMBER OF ATOMS
14
ITEM: BOX BOUNDS ff ff ff
-5.0000000000000000e+00 5.0000000000000000e+00
-5.0000000000000000e+00 5.0000000000000000e+00
-5.0000000000000000e+00 5.0000000000000000e+00
ITEM: ATOMS id type xs ys zs
1 1 0.254733 0.0765674 0.285969
2 1 0.140539 0.037447 0.808218
3 1 0.0465974 0.359819 0.754198
4 1 0.324525 0.631825 0.268765
5 1 0.1673 0.132993 0.41799
6 1 0.76905 0.43827 0.990601
7 1 0.0319437 0.498024 0.217186
8 1 0.124463 0.391727 0.825314
9 1 0.608668 0.887821 0.642288
10 1 0.94348 0.620845 0.353969
11 1 0.31487 0.686209 0.974385
12 1 0.862339 0.797465 0.178333
13 1 0.0651173 0.796839 0.857709
14 1 0.252101 0.143647 0.4892
ITEM: TIMESTEP
3
ITEM: NUMBER OF ATOMS
14
ITEM: BOX BOUNDS ff ff ff
-5.0000000000000000e+00 5.0000000000000000e+00
-5.0000000000000000e+00 5.0000000000000000e+00
-5.0000000000000000e+00 5.0000000000000000e+00
ITEM: ATOMS id type xs ys zs
1 1 0.254465 0.0767703 0.286464
2 1 0.140538 0.0374552 0.808213
3 1 0.0457696 0.359474 0.753439
4 1 0.324521 0.631823 0.268764
5 1 0.167319 0.132791 0.417383
6 1 0.769049 0.43827 0.9906
7 1 0.0319492 0.498025 0.217187
8 1 0.125294 0.392066 0.826071
9 1 0.608667 0.887821 0.642288
10 1 0.943472 0.620862 0.353952
11 1 0.31486 0.686212 0.97438
12 1 0.862346 0.797448 0.17835
13 1 0.0651264 0.796833 0.857713
14 1 0.252346 0.143647 0.489318
ITEM: TIMESTEP
4
ITEM: NUMBER OF ATOMS
14
ITEM: BOX BOUNDS ff ff ff
-5.0000000000000000e+00 5.0000000000000000e+00
-5.0000000000000000e+00 5.0000000000000000e+00
-5.0000000000000000e+00 5.0000000000000000e+00
ITEM: ATOMS id type xs ys zs
1 1 0.249269 0.0807018 0.29605
2 1 0.140535 0.0376052 0.808128
3 1 0.046521 0.359686 0.754069
4 1 0.324432 0.631775 0.268755
5 1 0.169807 0.129145 0.407383
6 1 0.769044 0.438273 0.990598
7 1 0.0320502 0.498046 0.217217
8 1 0.124609 0.391757 0.82542
9 1 0.608664 0.887812 0.642287
10 1 0.943323 0.621177 0.353643
11 1 0.314683 0.686252 0.974282
12 1 0.862487 0.797134 0.178665
13 1 0.0652937 0.79673 0.857783
14 1 0.255004 0.143403 0.489845
ITEM: TIMESTEP
5
ITEM: NUMBER OF ATOMS
14
ITEM: BOX BOUNDS ff ff ff
-5.0000000000000000e+00 5.0000000000000000e+00
-5.0000000000000000e+00 5.0000000000000000e+00
-5.0000000000000000e+00 5.0000000000000000e+00
ITEM: ATOMS id type xs ys zs
1 1 0.243757 0.0848165 0.30605
2 1 0.140533 0.0377522 0.808044
3 1 0.0464394 0.359559 0.753939
4 1 0.324344 0.631728 0.268746
5 1 0.174292 0.125587 0.398566
6 1 0.769039 0.438276 0.990596
7 1 0.0321491 0.498067 0.217247
8 1 0.124756 0.391791 0.825529
9 1 0.608662 0.887803 0.642285
10 1 0.943178 0.621487 0.35334
11 1 0.31451 0.686291 0.974186
12 1 0.862624 0.796826 0.178975
13 1 0.0654577 0.796629 0.857852
14 1 0.255983 0.142886 0.488771
ITEM: TIMESTEP
6
ITEM: NUMBER OF ATOMS
14
ITEM: BOX BOUNDS ff ff ff
-5.0000000000000000e+00 5.0000000000000000e+00
-5.0000000000000000e+00 5.0000000000000000e+00
-5.0000000000000000e+00 5.0000000000000000e+00
ITEM: ATOMS id type xs ys zs
1 1 0.240797 0.0869035 0.31105
2 1 0.140532 0.0378064 0.808013
3 1 0.0458344 0.359275 0.753366
4 1 0.324312 0.631711 0.268743
5 1 0.178431 0.124056 0.395788
6 1 0.769037 0.438277 0.990595
7 1 0.0321857 0.498074 0.217258
8 1 0.125385 0.39204 0.826095
9 1 0.608661 0.8878 0.642285
10 1 0.943124 0.621602 0.353227
11 1 0.314446 0.686306 0.97415
12 1 0.862676 0.796712 0.17909
13 1 0.0655183 0.796592 0.857878
14 1 0.254786 0.142344 0.486589
ITEM: TIMESTEP
7
ITEM: NUMBER OF ATOMS
14
ITEM: BOX BOUNDS ff ff ff
-5.0000000000000000e+00 5.0000000000000000e+00
-5.0000000000000000e+00 5.0000000000000000e+00
-5.0000000000000000e+00 5.0000000000000000e+00
ITEM: ATOMS id type xs ys zs
1 1 0.240554 0.0872679 0.312046
2 1 0.140531 0.0378301 0.808
3 1 0.0459425 0.359305 0.753456
4 1 0.324298 0.631703 0.268741
5 1 0.180955 0.124422 0.398056
6 1 0.769036 0.438278 0.990595
7 1 0.0322019 0.498077 0.217262
8 1 0.125287 0.391995 0.826002
9 1 0.60866 0.887798 0.642284
10 1 0.943099 0.621654 0.353176
11 1 0.314417 0.686313 0.974135
12 1 0.862699 0.79666 0.179142
13 1 0.0655454 0.796575 0.857889
14 1 0.252498 0.141621 0.483341
ITEM: TIMESTEP
8
ITEM: NUMBER OF ATOMS
14
ITEM: BOX BOUNDS ff ff ff
-5.0000000000000000e+00 5.0000000000000000e+00
-5.0000000000000000e+00 5.0000000000000000e+00
-5.0000000000000000e+00 5.0000000000000000e+00
ITEM: ATOMS id type xs ys zs
1 1 0.240913 0.0871479 0.311844
2 1 0.140531 0.0378375 0.807997
3 1 0.0459851 0.359318 0.753493
4 1 0.324294 0.631701 0.268741
5 1 0.180728 0.124661 0.398681
6 1 0.769036 0.438278 0.990594
7 1 0.032207 0.498078 0.217264
8 1 0.125248 0.391977 0.825964
9 1 0.60866 0.887798 0.642284
10 1 0.943091 0.621671 0.353159
11 1 0.314408 0.686315 0.97413
12 1 0.862706 0.796643 0.179158
13 1 0.0655539 0.79657 0.857893
14 1 0.252363 0.141503 0.482924
ITEM: TIMESTEP
9
ITEM: NUMBER OF ATOMS
14
ITEM: BOX BOUNDS ff ff ff
-5.0000000000000000e+00 5.0000000000000000e+00
-5.0000000000000000e+00 5.0000000000000000e+00
-5.0000000000000000e+00 5.0000000000000000e+00
ITEM: ATOMS id type xs ys zs
1 1 0.246113 0.0896577 0.321816
2 1 0.140518 0.0382424 0.807785
3 1 0.04656 0.359301 0.753881
4 1 0.324047 0.631567 0.268716
5 1 0.171664 0.126145 0.398974
6 1 0.769021 0.438286 0.990588
7 1 0.0324884 0.498135 0.217346
8 1 0.124849 0.39174 0.825535
9 1 0.608652 0.887774 0.64228
10 1 0.942658 0.622592 0.352255
11 1 0.313912 0.68643 0.973856
12 1 0.863117 0.795726 0.180079
13 1 0.0660238 0.796282 0.85809
14 1 0.256101 0.13762 0.472924
ITEM: TIMESTEP
10
ITEM: NUMBER OF ATOMS
14
ITEM: BOX BOUNDS ff ff ff
-5.0000000000000000e+00 5.0000000000000000e+00
-5.0000000000000000e+00 5.0000000000000000e+00
-5.0000000000000000e+00 5.0000000000000000e+00
ITEM: ATOMS id type xs ys zs
1 1 0.2499 0.092385 0.331816
2 1 0.140507 0.0385884 0.807605
3 1 0.0461085 0.358897 0.753351
4 1 0.323836 0.631453 0.268694
5 1 0.165172 0.127142 0.398972
6 1 0.769009 0.438293 0.990582
7 1 0.032729 0.498183 0.217416
8 1 0.12545 0.391927 0.82603
9 1 0.608645 0.887753 0.642276
10 1 0.942287 0.623382 0.35148
11 1 0.313487 0.686528 0.973621
12 1 0.86347 0.794939 0.180868
13 1 0.0664257 0.796035 0.858259
14 1 0.258699 0.133991 0.463152
ITEM: TIMESTEP
11
ITEM: NUMBER OF ATOMS
14
ITEM: BOX BOUNDS ff ff ff
-5.0000000000000000e+00 5.0000000000000000e+00
-5.0000000000000000e+00 5.0000000000000000e+00
-5.0000000000000000e+00 5.0000000000000000e+00
ITEM: ATOMS id type xs ys zs
1 1 0.252556 0.0952775 0.341816
2 1 0.140497 0.0388732 0.807458
3 1 0.045866 0.358618 0.753033
4 1 0.323662 0.631359 0.268676
5 1 0.161015 0.127784 0.398972
6 1 0.768998 0.438299 0.990578
7 1 0.0329273 0.498222 0.217474
8 1 0.125816 0.392028 0.82632
9 1 0.608639 0.887736 0.642273
10 1 0.94198 0.624036 0.350839
11 1 0.313137 0.686609 0.973428
12 1 0.863762 0.794288 0.181521
13 1 0.0667573 0.795832 0.858399
14 1 0.260111 0.130535 0.453337
ITEM: TIMESTEP
12
ITEM: NUMBER OF ATOMS
14
ITEM: BOX BOUNDS ff ff ff
-5.0000000000000000e+00 5.0000000000000000e+00
-5.0000000000000000e+00 5.0000000000000000e+00
-5.0000000000000000e+00 5.0000000000000000e+00
ITEM: ATOMS id type xs ys zs
1 1 0.252458 0.0959498 0.343829
2 1 0.140496 0.0388827 0.807453
3 1 0.0463539 0.358816 0.753477
4 1 0.323656 0.631356 0.268675
5 1 0.161652 0.127717 0.399061
6 1 0.768998 0.438299 0.990578
7 1 0.0329343 0.498224 0.217476
8 1 0.125333 0.391824 0.825875
9 1 0.608639 0.887735 0.642273
10 1 0.941967 0.624063 0.350813
11 1 0.313124 0.686612 0.973421
12 1 0.863774 0.794262 0.181548
13 1 0.0667694 0.795825 0.858404
14 1 0.25957 0.129932 0.451241
ITEM: TIMESTEP
13
ITEM: NUMBER OF ATOMS
14
ITEM: BOX BOUNDS ff ff ff
-5.0000000000000000e+00 5.0000000000000000e+00
-5.0000000000000000e+00 5.0000000000000000e+00
-5.0000000000000000e+00 5.0000000000000000e+00
ITEM: ATOMS id type xs ys zs
1 1 0.253282 0.0961739 0.344895
2 1 0.140495 0.0388991 0.807446
3 1 0.0465757 0.358898 0.753676
4 1 0.323645 0.63135 0.268674
5 1 0.160285 0.127958 0.399163
6 1 0.768997 0.4383 0.990578
7 1 0.0329463 0.498226 0.21748
8 1 0.125117 0.391732 0.825676
9 1 0.608639 0.887734 0.642273
10 1 0.941946 0.624109 0.350767
11 1 0.313102 0.686618 0.973409
12 1 0.863794 0.794216 0.181594
13 1 0.0667902 0.795812 0.858413
14 1 0.260109 0.129472 0.450082
ITEM: TIMESTEP
14
ITEM: NUMBER OF ATOMS
14
ITEM: BOX BOUNDS ff ff ff
-5.0000000000000000e+00 5.0000000000000000e+00
-5.0000000000000000e+00 5.0000000000000000e+00
-5.0000000000000000e+00 5.0000000000000000e+00
ITEM: ATOMS id type xs ys zs
1 1 0.253333 0.0961555 0.344862
2 1 0.140495 0.0389012 0.807445
3 1 0.0465589 0.35889 0.75366
4 1 0.323644 0.63135 0.268674
5 1 0.160178 0.127975 0.399165
6 1 0.768997 0.4383 0.990578
7 1 0.0329478 0.498226 0.21748
8 1 0.125135 0.391739 0.825692
9 1 0.608639 0.887734 0.642273
10 1 0.941943 0.624115 0.350761
11 1 0.313099 0.686618 0.973408
12 1 0.863797 0.79421 0.1816
13 1 0.0667928 0.795811 0.858414
14 1 0.260164 0.129474 0.450113
ITEM: TIMESTEP
15
ITEM: NUMBER OF ATOMS
14
ITEM: BOX BOUNDS ff ff ff
-5.0000000000000000e+00 5.0000000000000000e+00
-5.0000000000000000e+00 5.0000000000000000e+00
-5.0000000000000000e+00 5.0000000000000000e+00
ITEM: ATOMS id type xs ys zs
1 1 0.25325 0.0959892 0.344313
2 1 0.140494 0.038906 0.807443
3 1 0.0463924 0.358818 0.753506
4 1 0.323641 0.631348 0.268674
5 1 0.160219 0.12796 0.399136
6 1 0.768997 0.4383 0.990577
7 1 0.0329514 0.498227 0.217481
8 1 0.125304 0.391808 0.825846
9 1 0.608639 0.887734 0.642273
10 1 0.941937 0.624129 0.350748
11 1 0.313093 0.68662 0.973404
12 1 0.863803 0.794196 0.181613
13 1 0.066799 0.795807 0.858416
14 1 0.260206 0.129657 0.450693
ITEM: TIMESTEP
16
ITEM: NUMBER OF ATOMS
14
ITEM: BOX BOUNDS ff ff ff
-5.0000000000000000e+00 5.0000000000000000e+00
-5.0000000000000000e+00 5.0000000000000000e+00
-5.0000000000000000e+00 5.0000000000000000e+00
ITEM: ATOMS id type xs ys zs
1 1 0.253079 0.0959692 0.344171
2 1 0.140494 0.0389141 0.80744
3 1 0.0463092 0.358778 0.753427
4 1 0.323636 0.631345 0.268673
5 1 0.160493 0.12791 0.399108
6 1 0.768997 0.4383 0.990577
7 1 0.0329572 0.498228 0.217483
8 1 0.12539 0.391843 0.825924
9 1 0.608638 0.887733 0.642273
10 1 0.941926 0.624151 0.350726
11 1 0.313082 0.686623 0.973398
12 1 0.863813 0.794174 0.181636
13 1 0.0668092 0.795801 0.858421
14 1 0.2601 0.129729 0.450867
ITEM: TIMESTEP
17
ITEM: NUMBER OF ATOMS
14
ITEM: BOX BOUNDS ff ff ff
-5.0000000000000000e+00 5.0000000000000000e+00
-5.0000000000000000e+00 5.0000000000000000e+00
-5.0000000000000000e+00 5.0000000000000000e+00
ITEM: ATOMS id type xs ys zs
1 1 0.253054 0.0959589 0.344127
2 1 0.140493 0.0389219 0.807437
3 1 0.0463171 0.358776 0.753432
4 1 0.323631 0.631342 0.268673
5 1 0.160523 0.127904 0.399102
6 1 0.768997 0.4383 0.990577
7 1 0.032963 0.498229 0.217485
8 1 0.125385 0.39184 0.825918
9 1 0.608638 0.887733 0.642273
10 1 0.941916 0.624174 0.350704
11 1 0.313072 0.686625 0.973392
12 1 0.863823 0.794152 0.181658
13 1 0.0668192 0.795795 0.858425
14 1 0.260093 0.129748 0.450922
ITEM: TIMESTEP
18
ITEM: NUMBER OF ATOMS
14
ITEM: BOX BOUNDS ff ff ff
-5.0000000000000000e+00 5.0000000000000000e+00
-5.0000000000000000e+00 5.0000000000000000e+00
-5.0000000000000000e+00 5.0000000000000000e+00
ITEM: ATOMS id type xs ys zs
1 1 0.253002 0.0959691 0.344128
2 1 0.14049 0.0389586 0.807421
3 1 0.0463271 0.358758 0.753431
4 1 0.323607 0.63133 0.26867
5 1 0.160605 0.127893 0.399098
6 1 0.768995 0.438301 0.990577
7 1 0.0329899 0.498235 0.217493
8 1 0.12539 0.391836 0.825918
9 1 0.608638 0.88773 0.642272
10 1 0.941867 0.624278 0.350601
11 1 0.313022 0.686637 0.973366
12 1 0.86387 0.794048 0.181762
13 1 0.0668659 0.795767 0.858445
14 1 0.260055 0.129759 0.450943
ITEM: TIMESTEP
19
ITEM: NUMBER OF ATOMS
14
ITEM: BOX BOUNDS ff ff ff
-5.0000000000000000e+00 5.0000000000000000e+00
-5.0000000000000000e+00 5.0000000000000000e+00
-5.0000000000000000e+00 5.0000000000000000e+00
ITEM: ATOMS id type xs ys zs
1 1 0.252993 0.0959239 0.343925
2 1 0.140456 0.0393572 0.807251
3 1 0.0464419 0.358558 0.753419
4 1 0.32335 0.631191 0.268644
5 1 0.160476 0.127956 0.399136
6 1 0.768981 0.438309 0.99057
7 1 0.0332819 0.498291 0.21758
8 1 0.125439 0.391788 0.825908
9 1 0.60863 0.887706 0.642268
10 1 0.941336 0.625412 0.349485
11 1 0.312487 0.686767 0.973073
12 1 0.864379 0.792917 0.182895
13 1 0.0673736 0.795461 0.858659
14 1 0.2601 0.12986 0.451311
ITEM: TIMESTEP
20
ITEM: NUMBER OF ATOMS
14
ITEM: BOX BOUNDS ff ff ff
-5.0000000000000000e+00 5.0000000000000000e+00
-5.0000000000000000e+00 5.0000000000000000e+00
-5.0000000000000000e+00 5.0000000000000000e+00
ITEM: ATOMS id type xs ys zs
1 1 0.252934 0.0959308 0.343794
2 1 0.140388 0.0401667 0.806906
3 1 0.0466751 0.358153 0.753395
4 1 0.322829 0.630908 0.268589
5 1 0.160363 0.128066 0.399228
6 1 0.768951 0.438326 0.990557
7 1 0.033875 0.498406 0.217757
8 1 0.125537 0.391691 0.825888
9 1 0.608613 0.887656 0.642259
10 1 0.940257 0.627718 0.347218
11 1 0.311401 0.687032 0.97248
12 1 0.865413 0.79062 0.185196
13 1 0.0684048 0.794839 0.859096
14 1 0.260083 0.129985 0.451761
ITEM: TIMESTEP
21
ITEM: NUMBER OF ATOMS
14
ITEM: BOX BOUNDS ff ff ff
-5.0000000000000000e+00 5.0000000000000000e+00
-5.0000000000000000e+00 5.0000000000000000e+00
-5.0000000000000000e+00 5.0000000000000000e+00
ITEM: ATOMS id type xs ys zs
1 1 0.25246 0.0964103 0.344509
2 1 0.140092 0.0436723 0.805413
3 1 0.0476854 0.3564 0.753291
4 1 0.320571 0.629686 0.268353
5 1 0.160612 0.128448 0.399684
6 1 0.768824 0.438399 0.990501
7 1 0.0364434 0.498902 0.218524
8 1 0.125963 0.391272 0.825802
9 1 0.608543 0.887441 0.64222
10 1 0.935577 0.637718 0.337383
11 1 0.306694 0.688179 0.96991
12 1 0.869898 0.780657 0.195178
13 1 0.0728714 0.792147 0.860986
14 1 0.25949 0.130167 0.452371
ITEM: TIMESTEP
22
ITEM: NUMBER OF ATOMS
14
ITEM: BOX BOUNDS ff ff ff
-5.0000000000000000e+00 5.0000000000000000e+00
-5.0000000000000000e+00 5.0000000000000000e+00
-5.0000000000000000e+00 5.0000000000000000e+00
ITEM: ATOMS id type xs ys zs
1 1 0.252859 0.0966025 0.345253
2 1 0.140069 0.0439434 0.805298
3 1 0.04777 0.356267 0.753289
4 1 0.320396 0.629591 0.268335
5 1 0.160071 0.128605 0.399846
6 1 0.768814 0.438405 0.990496
7 1 0.0366422 0.498941 0.218583
8 1 0.12599 0.391237 0.825789
9 1 0.608537 0.887424 0.642217
10 1 0.935169 0.638592 0.336523
11 1 0.306325 0.68827 0.969709
12 1 0.870291 0.779786 0.196049
13 1 0.0732228 0.791936 0.861135
14 1 0.25957 0.129898 0.451602
ITEM: TIMESTEP
23
ITEM: NUMBER OF ATOMS
14
ITEM: BOX BOUNDS ff ff ff
-5.0000000000000000e+00 5.0000000000000000e+00
-5.0000000000000000e+00 5.0000000000000000e+00
-5.0000000000000000e+00 5.0000000000000000e+00
ITEM: ATOMS id type xs ys zs
1 1 0.253169 0.0966287 0.345438
2 1 0.140044 0.0442345 0.805175
3 1 0.0478544 0.356121 0.753282
4 1 0.320208 0.62949 0.268315
5 1 0.159504 0.128747 0.399943
6 1 0.768804 0.43841 0.990492
7 1 0.0368558 0.498983 0.218647
8 1 0.126024 0.391202 0.825781
9 1 0.608532 0.887406 0.642213
10 1 0.934686 0.639628 0.335502
11 1 0.305922 0.688371 0.96949
12 1 0.870758 0.778754 0.197082
13 1 0.0736057 0.791708 0.861298
14 1 0.259759 0.129816 0.451467
ITEM: TIMESTEP
24
ITEM: NUMBER OF ATOMS
14
ITEM: BOX BOUNDS ff ff ff
-5.0000000000000000e+00 5.0000000000000000e+00
-5.0000000000000000e+00 5.0000000000000000e+00
-5.0000000000000000e+00 5.0000000000000000e+00
ITEM: ATOMS id type xs ys zs
1 1 0.252837 0.0963902 0.344123
2 1 0.139815 0.0469008 0.804048
3 1 0.048597 0.354768 0.753186
4 1 0.318482 0.628558 0.268132
5 1 0.159158 0.129073 0.400159
6 1 0.768709 0.438464 0.99045
7 1 0.0388133 0.499371 0.219227
8 1 0.126367 0.390891 0.825737
9 1 0.60848 0.887245 0.642183
10 1 0.930027 0.649628 0.325639
11 1 0.302206 0.689311 0.967478
12 1 0.87527 0.768782 0.207056
13 1 0.0771397 0.789605 0.8628
14 1 0.259823 0.130511 0.453908
ITEM: TIMESTEP
25
ITEM: NUMBER OF ATOMS
14
ITEM: BOX BOUNDS ff ff ff
-5.0000000000000000e+00 5.0000000000000000e+00
-5.0000000000000000e+00 5.0000000000000000e+00
-5.0000000000000000e+00 5.0000000000000000e+00
ITEM: ATOMS id type xs ys zs
1 1 0.252038 0.0966403 0.34411
2 1 0.13959 0.0495171 0.802943
3 1 0.0493495 0.353452 0.753114
4 1 0.316788 0.627643 0.267953
5 1 0.159976 0.129215 0.400384
6 1 0.768617 0.438517 0.990409
7 1 0.0407343 0.499752 0.219796
8 1 0.126679 0.390576 0.825672
9 1 0.608429 0.887087 0.642153
10 1 0.925369 0.659628 0.315774
11 1 0.298556 0.690235 0.9655
12 1 0.879784 0.758809 0.21703
13 1 0.0806125 0.787539 0.864277
14 1 0.259201 0.130887 0.45501
ITEM: TIMESTEP
26
ITEM: NUMBER OF ATOMS
14
ITEM: BOX BOUNDS ff ff ff
-5.0000000000000000e+00 5.0000000000000000e+00
-5.0000000000000000e+00 5.0000000000000000e+00
-5.0000000000000000e+00 5.0000000000000000e+00
ITEM: ATOMS id type xs ys zs
1 1 0.251649 0.0974301 0.346267
2 1 0.13952 0.0503377 0.802597
3 1 0.0496387 0.353064 0.753142
4 1 0.316256 0.627355 0.267897
5 1 0.161114 0.129175 0.40063
6 1 0.768588 0.438534 0.990396
7 1 0.0413371 0.499873 0.219974
8 1 0.126724 0.390451 0.825602
9 1 0.608413 0.887038 0.642144
10 1 0.923413 0.663843 0.311605
11 1 0.297398 0.690532 0.964874
12 1 0.881696 0.754602 0.221232
13 1 0.0817151 0.786886 0.864746
14 1 0.258263 0.130377 0.453019
ITEM: TIMESTEP
27
ITEM: NUMBER OF ATOMS
14
ITEM: BOX BOUNDS ff ff ff
-5.0000000000000000e+00 5.0000000000000000e+00
-5.0000000000000000e+00 5.0000000000000000e+00
-5.0000000000000000e+00 5.0000000000000000e+00
ITEM: ATOMS id type xs ys zs
1 1 0.252187 0.0979039 0.347883
2 1 0.139441 0.0512462 0.802214
3 1 0.0499444 0.352627 0.753159
4 1 0.315667 0.627037 0.267834
5 1 0.160412 0.129462 0.400958
6 1 0.768556 0.438552 0.990382
7 1 0.0420048 0.500007 0.220172
8 1 0.126787 0.390319 0.825537
9 1 0.608395 0.886984 0.642133
10 1 0.920736 0.669621 0.305883
11 1 0.296105 0.690865 0.964177
12 1 0.884323 0.748834 0.226992
13 1 0.082946 0.786158 0.865271
14 1 0.25822 0.129881 0.45153
ITEM: TIMESTEP
28
ITEM: NUMBER OF ATOMS
14
ITEM: BOX BOUNDS ff ff ff
-5.0000000000000000e+00 5.0000000000000000e+00
-5.0000000000000000e+00 5.0000000000000000e+00
-5.0000000000000000e+00 5.0000000000000000e+00
ITEM: ATOMS id type xs ys zs
1 1 0.252566 0.0977513 0.347544
2 1 0.139414 0.0515559 0.802084
3 1 0.0500317 0.35247 0.753149
4 1 0.315466 0.626929 0.267812
5 1 0.159578 0.129641 0.401025
6 1 0.768545 0.438558 0.990377
7 1 0.0422324 0.500052 0.220239
8 1 0.126825 0.390283 0.825531
9 1 0.608389 0.886965 0.64213
10 1 0.919677 0.671908 0.303617
11 1 0.295661 0.69098 0.963938
12 1 0.885365 0.74655 0.229271
13 1 0.0833691 0.785909 0.865451
14 1 0.258604 0.129946 0.451957
ITEM: TIMESTEP
29
ITEM: NUMBER OF ATOMS
14
ITEM: BOX BOUNDS ff ff ff
-5.0000000000000000e+00 5.0000000000000000e+00
-5.0000000000000000e+00 5.0000000000000000e+00
-5.0000000000000000e+00 5.0000000000000000e+00
ITEM: ATOMS id type xs ys zs
1 1 0.252574 0.0976482 0.347223
2 1 0.139414 0.0515578 0.802083
3 1 0.0500233 0.352464 0.753141
4 1 0.315464 0.626928 0.267812
5 1 0.159477 0.129649 0.401002
6 1 0.768545 0.438558 0.990377
7 1 0.0422338 0.500053 0.220239
8 1 0.126834 0.390287 0.825539
9 1 0.608389 0.886965 0.64213
10 1 0.919722 0.671811 0.303714
11 1 0.295656 0.690982 0.963935
12 1 0.88532 0.746648 0.229173
13 1 0.0833738 0.785906 0.865454
14 1 0.258696 0.13004 0.452303
ITEM: TIMESTEP
30
ITEM: NUMBER OF ATOMS
14
ITEM: BOX BOUNDS ff ff ff
-5.0000000000000000e+00 5.0000000000000000e+00
-5.0000000000000000e+00 5.0000000000000000e+00
-5.0000000000000000e+00 5.0000000000000000e+00
ITEM: ATOMS id type xs ys zs
1 1 0.252546 0.0973932 0.346405
2 1 0.139413 0.0515648 0.80208
3 1 0.0499977 0.352447 0.753115
4 1 0.31546 0.626926 0.267812
5 1 0.15929 0.129656 0.400927
6 1 0.768545 0.438558 0.990377
7 1 0.0422392 0.500054 0.220241
8 1 0.126863 0.3903 0.825565
9 1 0.608389 0.886965 0.64213
10 1 0.919853 0.671526 0.303998
11 1 0.295638 0.690988 0.963926
12 1 0.885189 0.746932 0.22889
13 1 0.0833914 0.785897 0.865461
14 1 0.25891 0.13029 0.453198
ITEM: TIMESTEP
31
ITEM: NUMBER OF ATOMS
14
ITEM: BOX BOUNDS ff ff ff
-5.0000000000000000e+00 5.0000000000000000e+00
-5.0000000000000000e+00 5.0000000000000000e+00
-5.0000000000000000e+00 5.0000000000000000e+00
ITEM: ATOMS id type xs ys zs
1 1 0.252243 0.0974222 0.346341
2 1 0.139412 0.0515808 0.802075
3 1 0.0499812 0.352428 0.753095
4 1 0.315448 0.62692 0.26781
5 1 0.159742 0.129559 0.400847
6 1 0.768544 0.438559 0.990376
7 1 0.0422514 0.500058 0.220244
8 1 0.126885 0.390308 0.825585
9 1 0.608389 0.886964 0.64213
10 1 0.919927 0.671365 0.304159
11 1 0.295597 0.691003 0.963906
12 1 0.885115 0.747094 0.22873
13 1 0.0834314 0.785877 0.865479
14 1 0.258758 0.130362 0.453349
ITEM: TIMESTEP
32
ITEM: NUMBER OF ATOMS
14
ITEM: BOX BOUNDS ff ff ff
-5.0000000000000000e+00 5.0000000000000000e+00
-5.0000000000000000e+00 5.0000000000000000e+00
-5.0000000000000000e+00 5.0000000000000000e+00
ITEM: ATOMS id type xs ys zs
1 1 0.252235 0.097419 0.346327
2 1 0.139411 0.051583 0.802074
3 1 0.0499815 0.352426 0.753095
4 1 0.315447 0.626919 0.26781
5 1 0.159749 0.129557 0.400843
6 1 0.768544 0.438559 0.990376
7 1 0.0422531 0.500058 0.220244
8 1 0.126886 0.390308 0.825585
9 1 0.608389 0.886964 0.64213
10 1 0.919927 0.671363 0.304161
11 1 0.295592 0.691005 0.963903
12 1 0.885113 0.747096 0.228727
13 1 0.0834369 0.785874 0.865482
14 1 0.258759 0.130368 0.453368
ITEM: TIMESTEP
33
ITEM: NUMBER OF ATOMS
14
ITEM: BOX BOUNDS ff ff ff
-5.0000000000000000e+00 5.0000000000000000e+00
-5.0000000000000000e+00 5.0000000000000000e+00
-5.0000000000000000e+00 5.0000000000000000e+00
ITEM: ATOMS id type xs ys zs
1 1 0.252309 0.0973843 0.346254
2 1 0.13941 0.0515938 0.80207
3 1 0.0499916 0.352424 0.753102
4 1 0.315439 0.626915 0.267809
5 1 0.159599 0.129584 0.400851
6 1 0.768544 0.438559 0.990376
7 1 0.0422613 0.50006 0.220246
8 1 0.126879 0.390303 0.825578
9 1 0.608389 0.886963 0.642129
10 1 0.919901 0.67142 0.304104
11 1 0.295564 0.691015 0.96389
12 1 0.885139 0.747039 0.228784
13 1 0.083464 0.78586 0.865494
14 1 0.258833 0.130378 0.453438
ITEM: TIMESTEP
34
ITEM: NUMBER OF ATOMS
14
ITEM: BOX BOUNDS ff ff ff
-5.0000000000000000e+00 5.0000000000000000e+00
-5.0000000000000000e+00 5.0000000000000000e+00
-5.0000000000000000e+00 5.0000000000000000e+00
ITEM: ATOMS id type xs ys zs
1 1 0.252314 0.0973859 0.346261
2 1 0.13941 0.0515995 0.802068
3 1 0.0499944 0.352421 0.753103
4 1 0.315435 0.626913 0.267809
5 1 0.15959 0.129586 0.400853
6 1 0.768544 0.438559 0.990376
7 1 0.0422656 0.500061 0.220248
8 1 0.126879 0.390301 0.825576
9 1 0.608389 0.886963 0.642129
10 1 0.919896 0.67143 0.304094
11 1 0.295549 0.69102 0.963883
12 1 0.885144 0.747029 0.228795
13 1 0.0834781 0.785853 0.8655
14 1 0.258835 0.130375 0.453431
ITEM: TIMESTEP
35
ITEM: NUMBER OF ATOMS
14
ITEM: BOX BOUNDS ff ff ff
-5.0000000000000000e+00 5.0000000000000000e+00
-5.0000000000000000e+00 5.0000000000000000e+00
-5.0000000000000000e+00 5.0000000000000000e+00
ITEM: ATOMS id type xs ys zs
1 1 0.252273 0.0974205 0.346347
2 1 0.139408 0.0516175 0.802061
3 1 0.0499976 0.35241 0.753101
4 1 0.315423 0.626906 0.267807
5 1 0.159682 0.129573 0.400854
6 1 0.768543 0.438559 0.990376
7 1 0.0422793 0.500065 0.220251
8 1 0.126882 0.3903 0.825578
9 1 0.608389 0.886962 0.642129
10 1 0.919902 0.671417 0.304108
11 1 0.295503 0.691037 0.96386
12 1 0.885137 0.747042 0.228781
13 1 0.0835233 0.78583 0.86552
14 1 0.258782 0.130358 0.453351
ITEM: TIMESTEP
36
ITEM: NUMBER OF ATOMS
14
ITEM: BOX BOUNDS ff ff ff
-5.0000000000000000e+00 5.0000000000000000e+00
-5.0000000000000000e+00 5.0000000000000000e+00
-5.0000000000000000e+00 5.0000000000000000e+00
ITEM: ATOMS id type xs ys zs
1 1 0.25229 0.0974074 0.346314
2 1 0.139407 0.0516226 0.802059
3 1 0.0499993 0.352408 0.753101
4 1 0.315419 0.626904 0.267807
5 1 0.159642 0.12958 0.400855
6 1 0.768543 0.438559 0.990376
7 1 0.0422832 0.500066 0.220252
8 1 0.126882 0.390299 0.825577
9 1 0.608389 0.886962 0.642129
10 1 0.919901 0.671419 0.304106
11 1 0.29549 0.691042 0.963853
12 1 0.885138 0.747041 0.228783
13 1 0.0835362 0.785823 0.865526
14 1 0.258803 0.130365 0.453386
ITEM: TIMESTEP
37
ITEM: NUMBER OF ATOMS
14
ITEM: BOX BOUNDS ff ff ff
-5.0000000000000000e+00 5.0000000000000000e+00
-5.0000000000000000e+00 5.0000000000000000e+00
-5.0000000000000000e+00 5.0000000000000000e+00
ITEM: ATOMS id type xs ys zs
1 1 0.252314 0.0973897 0.346267
2 1 0.139404 0.0516496 0.802049
3 1 0.0500074 0.352393 0.753102
4 1 0.3154 0.626895 0.267804
5 1 0.159584 0.129592 0.400858
6 1 0.768543 0.43856 0.990376
7 1 0.0423037 0.500072 0.220258
8 1 0.126884 0.390295 0.825576
9 1 0.608388 0.886961 0.642129
10 1 0.919898 0.671424 0.304101
11 1 0.29542 0.691067 0.963819
12 1 0.88514 0.747035 0.228789
13 1 0.0836041 0.785788 0.865556
14 1 0.258833 0.130377 0.453441
ITEM: TIMESTEP
38
ITEM: NUMBER OF ATOMS
14
ITEM: BOX BOUNDS ff ff ff
-5.0000000000000000e+00 5.0000000000000000e+00
-5.0000000000000000e+00 5.0000000000000000e+00
-5.0000000000000000e+00 5.0000000000000000e+00
ITEM: ATOMS id type xs ys zs
1 1 0.252333 0.097378 0.346228
2 1 0.139393 0.0517493 0.802013
3 1 0.0500364 0.352339 0.753103
4 1 0.315331 0.626858 0.267796
5 1 0.159523 0.129611 0.40087
6 1 0.76854 0.438561 0.990375
7 1 0.0423796 0.500093 0.220277
8 1 0.126892 0.390281 0.825572
9 1 0.608387 0.886957 0.642127
10 1 0.919891 0.671435 0.304093
11 1 0.295163 0.691159 0.963692
12 1 0.885143 0.747025 0.228801
13 1 0.0838552 0.78566 0.865668
14 1 0.258856 0.130393 0.45351
ITEM: TIMESTEP
39
ITEM: NUMBER OF ATOMS
14
ITEM: BOX BOUNDS ff ff ff
-5.0000000000000000e+00 5.0000000000000000e+00
-5.0000000000000000e+00 5.0000000000000000e+00
-5.0000000000000000e+00 5.0000000000000000e+00
ITEM: ATOMS id type xs ys zs
1 1 0.252214 0.0974922 0.346464
2 1 0.139337 0.0522705 0.801821
3 1 0.050181 0.352052 0.753104
4 1 0.314967 0.626667 0.26775
5 1 0.159701 0.12963 0.400926
6 1 0.768528 0.438567 0.990369
7 1 0.0427763 0.500201 0.220382
8 1 0.126939 0.39021 0.825559
9 1 0.608382 0.886933 0.64212
10 1 0.919877 0.671444 0.304096
11 1 0.293817 0.691643 0.963026
12 1 0.885135 0.747021 0.228816
13 1 0.0851698 0.784987 0.866255
14 1 0.2587 0.130379 0.453437
ITEM: TIMESTEP
40
ITEM: NUMBER OF ATOMS
14
ITEM: BOX BOUNDS ff ff ff
-5.0000000000000000e+00 5.0000000000000000e+00
-5.0000000000000000e+00 5.0000000000000000e+00
-5.0000000000000000e+00 5.0000000000000000e+00
ITEM: ATOMS id type xs ys zs
1 1 0.252274 0.0977122 0.346721
2 1 0.138918 0.0561312 0.800401
3 1 0.05122 0.349908 0.753077
4 1 0.312268 0.625251 0.267413
5 1 0.158996 0.130109 0.401384
6 1 0.76844 0.438616 0.990327
7 1 0.045715 0.501004 0.221154
8 1 0.127321 0.389705 0.82549
9 1 0.608339 0.886762 0.642068
10 1 0.919887 0.671263 0.30437
11 1 0.283817 0.695245 0.958082
12 1 0.884958 0.747241 0.228675
13 1 0.0949386 0.779987 0.870616
14 1 0.258632 0.130566 0.454348
ITEM: TIMESTEP
41
ITEM: NUMBER OF ATOMS
14
ITEM: BOX BOUNDS ff ff ff
-5.0000000000000000e+00 5.0000000000000000e+00
-5.0000000000000000e+00 5.0000000000000000e+00
-5.0000000000000000e+00 5.0000000000000000e+00
ITEM: ATOMS id type xs ys zs
1 1 0.252127 0.0980652 0.347294
2 1 0.138501 0.0599818 0.798986
3 1 0.0522826 0.347783 0.753075
4 1 0.309577 0.623838 0.267077
5 1 0.158734 0.130511 0.401832
6 1 0.768351 0.438665 0.990285
7 1 0.0486463 0.501804 0.221924
8 1 0.127676 0.389188 0.825396
9 1 0.608296 0.886591 0.642015
10 1 0.919824 0.67124 0.304485
11 1 0.273817 0.698848 0.95314
12 1 0.884855 0.747301 0.228691
13 1 0.104708 0.774989 0.874977
14 1 0.258328 0.130692 0.454947
ITEM: TIMESTEP
42
ITEM: NUMBER OF ATOMS
14
ITEM: BOX BOUNDS ff ff ff
-5.0000000000000000e+00 5.0000000000000000e+00
-5.0000000000000000e+00 5.0000000000000000e+00
-5.0000000000000000e+00 5.0000000000000000e+00
ITEM: ATOMS id type xs ys zs
1 1 0.251827 0.0982445 0.347708
2 1 0.138499 0.0599986 0.79898
3 1 0.0523396 0.347802 0.753126
4 1 0.309564 0.623832 0.267075
5 1 0.159362 0.130405 0.401819
6 1 0.768351 0.438665 0.990285
7 1 0.0486597 0.501809 0.221927
8 1 0.127625 0.389157 0.825345
9 1 0.608296 0.88659 0.642015
10 1 0.919703 0.671501 0.304226
11 1 0.273662 0.698915 0.953066
12 1 0.884975 0.747041 0.228951
13 1 0.104863 0.774917 0.875048
14 1 0.257998 0.130623 0.454553
ITEM: TIMESTEP
43
ITEM: NUMBER OF ATOMS
14
ITEM: BOX BOUNDS ff ff ff
-5.0000000000000000e+00 5.0000000000000000e+00
-5.0000000000000000e+00 5.0000000000000000e+00
-5.0000000000000000e+00 5.0000000000000000e+00
ITEM: ATOMS id type xs ys zs
1 1 0.251908 0.09818 0.347543
2 1 0.138498 0.0600059 0.798978
3 1 0.0523371 0.347795 0.753122
4 1 0.309559 0.623829 0.267075
5 1 0.159178 0.130436 0.40182
6 1 0.768351 0.438665 0.990285
7 1 0.0486655 0.501811 0.221928
8 1 0.12763 0.389158 0.825349
9 1 0.608296 0.88659 0.642015
10 1 0.919711 0.671485 0.304242
11 1 0.273593 0.698945 0.953034
12 1 0.884967 0.747057 0.228935
13 1 0.104931 0.774885 0.87508
14 1 0.2581 0.130658 0.454719
ITEM: TIMESTEP
44
ITEM: NUMBER OF ATOMS
14
ITEM: BOX BOUNDS ff ff ff
-5.0000000000000000e+00 5.0000000000000000e+00
-5.0000000000000000e+00 5.0000000000000000e+00