ITEM: TIMESTEP
0
ITEM: NUMBER OF ATOMS
4
ITEM: BOX BOUNDS ff ff ff
-5.0000000000000000e+00 5.0000000000000000e+00
-5.0000000000000000e+00 5.0000000000000000e+00
-5.0000000000000000e+00 5.0000000000000000e+00
ITEM: ATOMS id type xs ys zs
1 1 0.927263 0.502041 0.80291
2 1 0.50736 0.204536 0.629694
3 1 0.273056 0.252523 0.152989
4 1 0.283684 0.872762 0.518019
ITEM: TIMESTEP
1
ITEM: NUMBER OF ATOMS
4
ITEM: BOX BOUNDS ff ff ff
-5.0000000000000000e+00 5.0000000000000000e+00
-5.0000000000000000e+00 5.0000000000000000e+00
-5.0000000000000000e+00 5.0000000000000000e+00
ITEM: ATOMS id type xs ys zs
1 1 0.927248 0.502032 0.802904
2 1 0.507364 0.204549 0.629682
3 1 0.273065 0.252523 0.153008
4 1 0.283685 0.872757 0.518019
ITEM: TIMESTEP
2
ITEM: NUMBER OF ATOMS
4
ITEM: BOX BOUNDS ff ff ff
-5.0000000000000000e+00 5.0000000000000000e+00
-5.0000000000000000e+00 5.0000000000000000e+00
-5.0000000000000000e+00 5.0000000000000000e+00
ITEM: ATOMS id type xs ys zs
1 1 0.927234 0.502023 0.802898
2 1 0.507368 0.204563 0.62967
3 1 0.273074 0.252524 0.153027
4 1 0.283687 0.872752 0.518018
ITEM: TIMESTEP
3
ITEM: NUMBER OF ATOMS
4
ITEM: BOX BOUNDS ff ff ff
-5.0000000000000000e+00 5.0000000000000000e+00
-5.0000000000000000e+00 5.0000000000000000e+00
-5.0000000000000000e+00 5.0000000000000000e+00
ITEM: ATOMS id type xs ys zs
1 1 0.927219 0.502014 0.802891
2 1 0.507372 0.204576 0.629657
3 1 0.273083 0.252524 0.153046
4 1 0.283689 0.872747 0.518018
ITEM: TIMESTEP
4
ITEM: NUMBER OF ATOMS
4
ITEM: BOX BOUNDS ff ff ff
-5.0000000000000000e+00 5.0000000000000000e+00
-5.0000000000000000e+00 5.0000000000000000e+00
-5.0000000000000000e+00 5.0000000000000000e+00
ITEM: ATOMS id type xs ys zs
1 1 0.927204 0.502005 0.802885
2 1 0.507376 0.20459 0.629645
3 1 0.273091 0.252525 0.153065
4 1 0.283691 0.872742 0.518017
ITEM: TIMESTEP
5
ITEM: NUMBER OF ATOMS
4
ITEM: BOX BOUNDS ff ff ff
-5.0000000000000000e+00 5.0000000000000000e+00
-5.0000000000000000e+00 5.0000000000000000e+00
-5.0000000000000000e+00 5.0000000000000000e+00
ITEM: ATOMS id type xs ys zs
1 1 0.92719 0.501996 0.802879
2 1 0.50738 0.204604 0.629632
3 1 0.2731 0.252525 0.153084
4 1 0.283692 0.872737 0.518017
ITEM: TIMESTEP
6
ITEM: NUMBER OF ATOMS
4
ITEM: BOX BOUNDS ff ff ff
-5.0000000000000000e+00 5.0000000000000000e+00
-5.0000000000000000e+00 5.0000000000000000e+00
-5.0000000000000000e+00 5.0000000000000000e+00
ITEM: ATOMS id type xs ys zs
1 1 0.927175 0.501987 0.802873
2 1 0.507384 0.204617 0.62962
3 1 0.273109 0.252525 0.153102
4 1 0.283694 0.872732 0.518017
ITEM: TIMESTEP
7
ITEM: NUMBER OF ATOMS
4
ITEM: BOX BOUNDS ff ff ff
-5.0000000000000000e+00 5.0000000000000000e+00
-5.0000000000000000e+00 5.0000000000000000e+00
-5.0000000000000000e+00 5.0000000000000000e+00
ITEM: ATOMS id type xs ys zs
1 1 0.927161 0.501978 0.802867
2 1 0.507388 0.204631 0.629608
3 1 0.273118 0.252526 0.153121
4 1 0.283696 0.872727 0.518016
ITEM: TIMESTEP
8
ITEM: NUMBER OF ATOMS
4
ITEM: BOX BOUNDS ff ff ff
-5.0000000000000000e+00 5.0000000000000000e+00
-5.0000000000000000e+00 5.0000000000000000e+00
-5.0000000000000000e+00 5.0000000000000000e+00
ITEM: ATOMS id type xs ys zs
1 1 0.927146 0.501969 0.802861
2 1 0.507392 0.204644 0.629595
3 1 0.273127 0.252526 0.15314
4 1 0.283698 0.872722 0.518016
ITEM: TIMESTEP
9
ITEM: NUMBER OF ATOMS
4
ITEM: BOX BOUNDS ff ff ff
-5.0000000000000000e+00 5.0000000000000000e+00
-5.0000000000000000e+00 5.0000000000000000e+00
-5.0000000000000000e+00 5.0000000000000000e+00
ITEM: ATOMS id type xs ys zs
1 1 0.927132 0.50196 0.802854
2 1 0.507396 0.204658 0.629583
3 1 0.273136 0.252526 0.153159
4 1 0.283699 0.872717 0.518016
ITEM: TIMESTEP
10
ITEM: NUMBER OF ATOMS
4
ITEM: BOX BOUNDS ff ff ff
-5.0000000000000000e+00 5.0000000000000000e+00
-5.0000000000000000e+00 5.0000000000000000e+00
-5.0000000000000000e+00 5.0000000000000000e+00
ITEM: ATOMS id type xs ys zs
1 1 0.927117 0.501951 0.802848
2 1 0.5074 0.204672 0.62957
3 1 0.273145 0.252527 0.153178
4 1 0.283701 0.872712 0.518015
ITEM: TIMESTEP
11
ITEM: NUMBER OF ATOMS
4
ITEM: BOX BOUNDS ff ff ff
-5.0000000000000000e+00 5.0000000000000000e+00
-5.0000000000000000e+00 5.0000000000000000e+00
-5.0000000000000000e+00 5.0000000000000000e+00
ITEM: ATOMS id type xs ys zs
1 1 0.927102 0.501942 0.802842
2 1 0.507404 0.204685 0.629558
3 1 0.273154 0.252527 0.153197
4 1 0.283703 0.872707 0.518015
ITEM: TIMESTEP
12
ITEM: NUMBER OF ATOMS
4
ITEM: BOX BOUNDS ff ff ff
-5.0000000000000000e+00 5.0000000000000000e+00
-5.0000000000000000e+00 5.0000000000000000e+00
-5.0000000000000000e+00 5.0000000000000000e+00
ITEM: ATOMS id type xs ys zs
1 1 0.927088 0.501933 0.802836
2 1 0.507408 0.204699 0.629546
3 1 0.273163 0.252528 0.153216
4 1 0.283705 0.872702 0.518014
ITEM: TIMESTEP
13
ITEM: NUMBER OF ATOMS
4
ITEM: BOX BOUNDS ff ff ff
-5.0000000000000000e+00 5.0000000000000000e+00
-5.0000000000000000e+00 5.0000000000000000e+00
-5.0000000000000000e+00 5.0000000000000000e+00
ITEM: ATOMS id type xs ys zs
1 1 0.927073 0.501924 0.80283
2 1 0.507412 0.204713 0.629533
3 1 0.273171 0.252528 0.153235
4 1 0.283706 0.872697 0.518014
ITEM: TIMESTEP
14
ITEM: NUMBER OF ATOMS
4
ITEM: BOX BOUNDS ff ff ff
-5.0000000000000000e+00 5.0000000000000000e+00
-5.0000000000000000e+00 5.0000000000000000e+00
-5.0000000000000000e+00 5.0000000000000000e+00
ITEM: ATOMS id type xs ys zs
1 1 0.927059 0.501915 0.802824
2 1 0.507416 0.204726 0.629521
3 1 0.27318 0.252528 0.153254
4 1 0.283708 0.872692 0.518014
ITEM: TIMESTEP
15
ITEM: NUMBER OF ATOMS
4
ITEM: BOX BOUNDS ff ff ff
-5.0000000000000000e+00 5.0000000000000000e+00
-5.0000000000000000e+00 5.0000000000000000e+00
-5.0000000000000000e+00 5.0000000000000000e+00
ITEM: ATOMS id type xs ys zs
1 1 0.927044 0.501906 0.802817
2 1 0.50742 0.20474 0.629508
3 1 0.273189 0.252529 0.153273
4 1 0.28371 0.872687 0.518013
ITEM: TIMESTEP
16
ITEM: NUMBER OF ATOMS
4
ITEM: BOX BOUNDS ff ff ff
-5.0000000000000000e+00 5.0000000000000000e+00
-5.0000000000000000e+00 5.0000000000000000e+00
-5.0000000000000000e+00 5.0000000000000000e+00
ITEM: ATOMS id type xs ys zs
1 1 0.92703 0.501897 0.802811
2 1 0.507424 0.204754 0.629496
3 1 0.273198 0.252529 0.153292
4 1 0.283711 0.872682 0.518013
ITEM: TIMESTEP
17
ITEM: NUMBER OF ATOMS
4
ITEM: BOX BOUNDS ff ff ff
-5.0000000000000000e+00 5.0000000000000000e+00
-5.0000000000000000e+00 5.0000000000000000e+00
-5.0000000000000000e+00 5.0000000000000000e+00
ITEM: ATOMS id type xs ys zs
1 1 0.927015 0.501888 0.802805
2 1 0.507427 0.204767 0.629483
3 1 0.273207 0.25253 0.153312
4 1 0.283713 0.872677 0.518012
ITEM: TIMESTEP
18
ITEM: NUMBER OF ATOMS
4
ITEM: BOX BOUNDS ff ff ff
-5.0000000000000000e+00 5.0000000000000000e+00
-5.0000000000000000e+00 5.0000000000000000e+00
-5.0000000000000000e+00 5.0000000000000000e+00
ITEM: ATOMS id type xs ys zs
1 1 0.927 0.501879 0.802799
2 1 0.507431 0.204781 0.629471
3 1 0.273216 0.25253 0.153331
4 1 0.283715 0.872672 0.518012
ITEM: TIMESTEP
19
ITEM: NUMBER OF ATOMS
4
ITEM: BOX BOUNDS ff ff ff
-5.0000000000000000e+00 5.0000000000000000e+00
-5.0000000000000000e+00 5.0000000000000000e+00
-5.0000000000000000e+00 5.0000000000000000e+00
ITEM: ATOMS id type xs ys zs
1 1 0.926986 0.50187 0.802793
2 1 0.507435 0.204795 0.629458
3 1 0.273225 0.25253 0.15335
4 1 0.283717 0.872667 0.518012
ITEM: TIMESTEP
20
ITEM: NUMBER OF ATOMS
4
ITEM: BOX BOUNDS ff ff ff
-5.0000000000000000e+00 5.0000000000000000e+00
-5.0000000000000000e+00 5.0000000000000000e+00
-5.0000000000000000e+00 5.0000000000000000e+00
ITEM: ATOMS id type xs ys zs
1 1 0.926971 0.501861 0.802786
2 1 0.507439 0.204808 0.629446
3 1 0.273234 0.252531 0.153369
4 1 0.283718 0.872662 0.518011
ITEM: TIMESTEP
21
ITEM: NUMBER OF ATOMS
4
ITEM: BOX BOUNDS ff ff ff
-5.0000000000000000e+00 5.0000000000000000e+00
-5.0000000000000000e+00 5.0000000000000000e+00
-5.0000000000000000e+00 5.0000000000000000e+00
ITEM: ATOMS id type xs ys zs
1 1 0.926957 0.501852 0.80278
2 1 0.507443 0.204822 0.629433
3 1 0.273243 0.252531 0.153388
4 1 0.28372 0.872657 0.518011
ITEM: TIMESTEP
22
ITEM: NUMBER OF ATOMS
4
ITEM: BOX BOUNDS ff ff ff
-5.0000000000000000e+00 5.0000000000000000e+00
-5.0000000000000000e+00 5.0000000000000000e+00
-5.0000000000000000e+00 5.0000000000000000e+00
ITEM: ATOMS id type xs ys zs
1 1 0.926942 0.501843 0.802774
2 1 0.507447 0.204836 0.629421
3 1 0.273252 0.252532 0.153407
4 1 0.283722 0.872652 0.51801
ITEM: TIMESTEP
23
ITEM: NUMBER OF ATOMS
4
ITEM: BOX BOUNDS ff ff ff
-5.0000000000000000e+00 5.0000000000000000e+00
-5.0000000000000000e+00 5.0000000000000000e+00
-5.0000000000000000e+00 5.0000000000000000e+00
ITEM: ATOMS id type xs ys zs
1 1 0.926927 0.501834 0.802768
2 1 0.507451 0.204849 0.629408
3 1 0.273261 0.252532 0.153426
4 1 0.283724 0.872647 0.51801
ITEM: TIMESTEP
24
ITEM: NUMBER OF ATOMS
4
ITEM: BOX BOUNDS ff ff ff
-5.0000000000000000e+00 5.0000000000000000e+00
-5.0000000000000000e+00 5.0000000000000000e+00
-5.0000000000000000e+00 5.0000000000000000e+00
ITEM: ATOMS id type xs ys zs
1 1 0.926913 0.501825 0.802762
2 1 0.507455 0.204863 0.629396
3 1 0.27327 0.252532 0.153445
4 1 0.283725 0.872642 0.51801
ITEM: TIMESTEP
25
ITEM: NUMBER OF ATOMS
4
ITEM: BOX BOUNDS ff ff ff
-5.0000000000000000e+00 5.0000000000000000e+00
-5.0000000000000000e+00 5.0000000000000000e+00
-5.0000000000000000e+00 5.0000000000000000e+00
ITEM: ATOMS id type xs ys zs
1 1 0.926898 0.501816 0.802755
2 1 0.507459 0.204877 0.629383
3 1 0.273279 0.252533 0.153464
4 1 0.283727 0.872637 0.518009
ITEM: TIMESTEP
26
ITEM: NUMBER OF ATOMS
4
ITEM: BOX BOUNDS ff ff ff
-5.0000000000000000e+00 5.0000000000000000e+00
-5.0000000000000000e+00 5.0000000000000000e+00
-5.0000000000000000e+00 5.0000000000000000e+00
ITEM: ATOMS id type xs ys zs
1 1 0.926883 0.501807 0.802749
2 1 0.507463 0.20489 0.629371
3 1 0.273287 0.252533 0.153483
4 1 0.283729 0.872632 0.518009
ITEM: TIMESTEP
27
ITEM: NUMBER OF ATOMS
4
ITEM: BOX BOUNDS ff ff ff
-5.0000000000000000e+00 5.0000000000000000e+00
-5.0000000000000000e+00 5.0000000000000000e+00
-5.0000000000000000e+00 5.0000000000000000e+00
ITEM: ATOMS id type xs ys zs
1 1 0.926869 0.501798 0.802743
2 1 0.507467 0.204904 0.629358
3 1 0.273296 0.252534 0.153502
4 1 0.283731 0.872627 0.518008
ITEM: TIMESTEP
28
ITEM: NUMBER OF ATOMS
4
ITEM: BOX BOUNDS ff ff ff
-5.0000000000000000e+00 5.0000000000000000e+00
-5.0000000000000000e+00 5.0000000000000000e+00
-5.0000000000000000e+00 5.0000000000000000e+00
ITEM: ATOMS id type xs ys zs
1 1 0.926854 0.501788 0.802737
2 1 0.507471 0.204918 0.629346
3 1 0.273305 0.252534 0.153521
4 1 0.283732 0.872622 0.518008
ITEM: TIMESTEP
29
ITEM: NUMBER OF ATOMS
4
ITEM: BOX BOUNDS ff ff ff
-5.0000000000000000e+00 5.0000000000000000e+00
-5.0000000000000000e+00 5.0000000000000000e+00
-5.0000000000000000e+00 5.0000000000000000e+00
ITEM: ATOMS id type xs ys zs
1 1 0.926839 0.501779 0.802731
2 1 0.507475 0.204931 0.629333
3 1 0.273314 0.252534 0.153541
4 1 0.283734 0.872617 0.518008
ITEM: TIMESTEP
30
ITEM: NUMBER OF ATOMS
4
ITEM: BOX BOUNDS ff ff ff
-5.0000000000000000e+00 5.0000000000000000e+00
-5.0000000000000000e+00 5.0000000000000000e+00
-5.0000000000000000e+00 5.0000000000000000e+00
ITEM: ATOMS id type xs ys zs
1 1 0.926825 0.50177 0.802724
2 1 0.507479 0.204945 0.629321
3 1 0.273323 0.252535 0.15356
4 1 0.283736 0.872612 0.518007
ITEM: TIMESTEP
31
ITEM: NUMBER OF ATOMS
4
ITEM: BOX BOUNDS ff ff ff
-5.0000000000000000e+00 5.0000000000000000e+00
-5.0000000000000000e+00 5.0000000000000000e+00
-5.0000000000000000e+00 5.0000000000000000e+00
ITEM: ATOMS id type xs ys zs
1 1 0.92681 0.501761 0.802718
2 1 0.507483 0.204959 0.629308
3 1 0.273332 0.252535 0.153579
4 1 0.283737 0.872607 0.518007
ITEM: TIMESTEP
32
ITEM: NUMBER OF ATOMS
4
ITEM: BOX BOUNDS ff ff ff
-5.0000000000000000e+00 5.0000000000000000e+00
-5.0000000000000000e+00 5.0000000000000000e+00
-5.0000000000000000e+00 5.0000000000000000e+00
ITEM: ATOMS id type xs ys zs
1 1 0.926795 0.501752 0.802712
2 1 0.507487 0.204973 0.629296
3 1 0.273341 0.252536 0.153598
4 1 0.283739 0.872602 0.518007
ITEM: TIMESTEP
33
ITEM: NUMBER OF ATOMS
4
ITEM: BOX BOUNDS ff ff ff
-5.0000000000000000e+00 5.0000000000000000e+00
-5.0000000000000000e+00 5.0000000000000000e+00
-5.0000000000000000e+00 5.0000000000000000e+00
ITEM: ATOMS id type xs ys zs
1 1 0.926781 0.501743 0.802706
2 1 0.507491 0.204986 0.629283
3 1 0.27335 0.252536 0.153617
4 1 0.283741 0.872597 0.518006
ITEM: TIMESTEP
34
ITEM: NUMBER OF ATOMS
4
ITEM: BOX BOUNDS ff ff ff
-5.0000000000000000e+00 5.0000000000000000e+00
-5.0000000000000000e+00 5.0000000000000000e+00
-5.0000000000000000e+00 5.0000000000000000e+00
ITEM: ATOMS id type xs ys zs
1 1 0.926766 0.501734 0.802699
2 1 0.507495 0.205 0.629271
3 1 0.273359 0.252536 0.153636
4 1 0.283743 0.872592 0.518006
ITEM: TIMESTEP
35
ITEM: NUMBER OF ATOMS
4
ITEM: BOX BOUNDS ff ff ff
-5.0000000000000000e+00 5.0000000000000000e+00
-5.0000000000000000e+00 5.0000000000000000e+00
-5.0000000000000000e+00 5.0000000000000000e+00
ITEM: ATOMS id type xs ys zs
1 1 0.926751 0.501725 0.802693
2 1 0.507499 0.205014 0.629258
3 1 0.273368 0.252537 0.153655
4 1 0.283744 0.872587 0.518005
ITEM: TIMESTEP
36
ITEM: NUMBER OF ATOMS
4
ITEM: BOX BOUNDS ff ff ff
-5.0000000000000000e+00 5.0000000000000000e+00
-5.0000000000000000e+00 5.0000000000000000e+00
-5.0000000000000000e+00 5.0000000000000000e+00
ITEM: ATOMS id type xs ys zs
1 1 0.926737 0.501716 0.802687
2 1 0.507503 0.205027 0.629246
3 1 0.273377 0.252537 0.153675
4 1 0.283746 0.872581 0.518005
ITEM: TIMESTEP
37
ITEM: NUMBER OF ATOMS
4
ITEM: BOX BOUNDS ff ff ff
-5.0000000000000000e+00 5.0000000000000000e+00
-5.0000000000000000e+00 5.0000000000000000e+00
-5.0000000000000000e+00 5.0000000000000000e+00
ITEM: ATOMS id type xs ys zs
1 1 0.926722 0.501707 0.802681
2 1 0.507507 0.205041 0.629233
3 1 0.273386 0.252538 0.153694
4 1 0.283748 0.872576 0.518005
ITEM: TIMESTEP
38
ITEM: NUMBER OF ATOMS
4
ITEM: BOX BOUNDS ff ff ff
-5.0000000000000000e+00 5.0000000000000000e+00
-5.0000000000000000e+00 5.0000000000000000e+00
-5.0000000000000000e+00 5.0000000000000000e+00
ITEM: ATOMS id type xs ys zs
1 1 0.926707 0.501698 0.802674
2 1 0.507511 0.205055 0.629221
3 1 0.273395 0.252538 0.153713
4 1 0.28375 0.872571 0.518004
ITEM: TIMESTEP
39
ITEM: NUMBER OF ATOMS
4
ITEM: BOX BOUNDS ff ff ff
-5.0000000000000000e+00 5.0000000000000000e+00
-5.0000000000000000e+00 5.0000000000000000e+00
-5.0000000000000000e+00 5.0000000000000000e+00
ITEM: ATOMS id type xs ys zs
1 1 0.926693 0.501689 0.802668
2 1 0.507514 0.205069 0.629208
3 1 0.273404 0.252538 0.153732
4 1 0.283751 0.872566 0.518004
ITEM: TIMESTEP
40
ITEM: NUMBER OF ATOMS
4
ITEM: BOX BOUNDS ff ff ff
-5.0000000000000000e+00 5.0000000000000000e+00
-5.0000000000000000e+00 5.0000000000000000e+00
-5.0000000000000000e+00 5.0000000000000000e+00
ITEM: ATOMS id type xs ys zs
1 1 0.926678 0.50168 0.802662
2 1 0.507518 0.205082 0.629195
3 1 0.273413 0.252539 0.153751
4 1 0.283753 0.872561 0.518003
ITEM: TIMESTEP
41
ITEM: NUMBER OF ATOMS
4
ITEM: BOX BOUNDS ff ff ff
-5.0000000000000000e+00 5.0000000000000000e+00
-5.0000000000000000e+00 5.0000000000000000e+00
-5.0000000000000000e+00 5.0000000000000000e+00
ITEM: ATOMS id type xs ys zs
1 1 0.926663 0.50167 0.802656
2 1 0.507522 0.205096 0.629183
3 1 0.273422 0.252539 0.153771
4 1 0.283755 0.872556 0.518003
ITEM: TIMESTEP
42
ITEM: NUMBER OF ATOMS
4
ITEM: BOX BOUNDS ff ff ff
-5.0000000000000000e+00 5.0000000000000000e+00
-5.0000000000000000e+00 5.0000000000000000e+00
-5.0000000000000000e+00 5.0000000000000000e+00
ITEM: ATOMS id type xs ys zs
1 1 0.926648 0.501661 0.802649
2 1 0.507526 0.20511 0.62917
3 1 0.273431 0.252539 0.15379
4 1 0.283757 0.872551 0.518003
ITEM: TIMESTEP
43
ITEM: NUMBER OF ATOMS
4
ITEM: BOX BOUNDS ff ff ff
-5.0000000000000000e+00 5.0000000000000000e+00
-5.0000000000000000e+00 5.0000000000000000e+00
-5.0000000000000000e+00 5.0000000000000000e+00
ITEM: ATOMS id type xs ys zs
1 1 0.926634 0.501652 0.802643
2 1 0.50753 0.205124 0.629158
3 1 0.27344 0.25254 0.153809
4 1 0.283758 0.872546 0.518002
ITEM: TIMESTEP
44
ITEM: NUMBER OF ATOMS
4
ITEM: BOX BOUNDS ff ff ff
-5.0000000000000000e+00 5.0000000000000000e+00
-5.0000000000000000e+00 5.0000000000000000e+00
-5.0000000000000000e+00 5.0000000000000000e+00
ITEM: ATOMS id type xs ys zs
1 1 0.926619 0.501643 0.802637
2 1 0.507534 0.205137 0.629145
3 1 0.273449 0.25254 0.153828
4 1 0.28376 0.872541 0.518002
ITEM: TIMESTEP
45
ITEM: NUMBER OF ATOMS
4
ITEM: BOX BOUNDS ff ff ff
-5.0000000000000000e+00 5.0000000000000000e+00
-5.0000000000000000e+00 5.0000000000000000e+00
-5.0000000000000000e+00 5.0000000000000000e+00
ITEM: ATOMS id type xs ys zs
1 1 0.926604 0.501634 0.802631
2 1 0.507538 0.205151 0.629133
3 1 0.273458 0.252541 0.153848
4 1 0.283762 0.872536 0.518001
ITEM: TIMESTEP
46
ITEM: NUMBER OF ATOMS
4
ITEM: BOX BOUNDS ff ff ff
-5.0000000000000000e+00 5.0000000000000000e+00
-5.0000000000000000e+00 5.0000000000000000e+00
-5.0000000000000000e+00 5.0000000000000000e+00
ITEM: ATOMS id type xs ys zs
1 1 0.92659 0.501625 0.802624
2 1 0.507542 0.205165 0.62912
3 1 0.273467 0.252541 0.153867
4 1 0.283764 0.872531 0.518001
ITEM: TIMESTEP
47
ITEM: NUMBER OF ATOMS
4
ITEM: BOX BOUNDS ff ff ff
-5.0000000000000000e+00 5.0000000000000000e+00
-5.0000000000000000e+00 5.0000000000000000e+00
-5.0000000000000000e+00 5.0000000000000000e+00
ITEM: ATOMS id type xs ys zs
1 1 0.926575 0.501616 0.802618
2 1 0.507546 0.205179 0.629107
3 1 0.273476 0.252541 0.153886
4 1 0.283765 0.872526 0.518001
ITEM: TIMESTEP
48
ITEM: NUMBER OF ATOMS
4
ITEM: BOX BOUNDS ff ff ff
-5.0000000000000000e+00 5.0000000000000000e+00
-5.0000000000000000e+00 5.0000000000000000e+00
-5.0000000000000000e+00 5.0000000000000000e+00
ITEM: ATOMS id type xs ys zs
1 1 0.92656 0.501607 0.802612
2 1 0.50755 0.205192 0.629095
3 1 0.273485 0.252542 0.153905
4 1 0.283767 0.872521 0.518
ITEM: TIMESTEP
49
ITEM: NUMBER OF ATOMS
4
ITEM: BOX BOUNDS ff ff ff
-5.0000000000000000e+00 5.0000000000000000e+00
-5.0000000000000000e+00 5.0000000000000000e+00
-5.0000000000000000e+00 5.0000000000000000e+00
ITEM: ATOMS id type xs ys zs
1 1 0.926545 0.501598 0.802606
2 1 0.507554 0.205206 0.629082
3 1 0.273494 0.252542 0.153925
4 1 0.283769 0.872516 0.518
ITEM: TIMESTEP
50
ITEM: NUMBER OF ATOMS
4
ITEM: BOX BOUNDS ff ff ff
-5.0000000000000000e+00 5.0000000000000000e+00
-5.0000000000000000e+00 5.0000000000000000e+00
-5.0000000000000000e+00 5.0000000000000000e+00
ITEM: ATOMS id type xs ys zs
1 1 0.926531 0.501589 0.802599
2 1 0.507558 0.20522 0.629069
3 1 0.273504 0.252543 0.153944
4 1 0.283771 0.872511 0.517999
ITEM: TIMESTEP
51
ITEM: NUMBER OF ATOMS
4
ITEM: BOX BOUNDS ff ff ff
-5.0000000000000000e+00 5.0000000000000000e+00
-5.0000000000000000e+00 5.0000000000000000e+00
-5.0000000000000000e+00 5.0000000000000000e+00
ITEM: ATOMS id type xs ys zs
1 1 0.926516 0.501579 0.802593
2 1 0.507562 0.205234 0.629057
3 1 0.273513 0.252543 0.153963
4 1 0.283772 0.872506 0.517999
ITEM: TIMESTEP
52
ITEM: NUMBER OF ATOMS
4
ITEM: BOX BOUNDS ff ff ff
-5.0000000000000000e+00 5.0000000000000000e+00
-5.0000000000000000e+00 5.0000000000000000e+00
-5.0000000000000000e+00 5.0000000000000000e+00
ITEM: ATOMS id type xs ys zs
1 1 0.926501 0.50157 0.802587
2 1 0.507566 0.205248 0.629044
3 1 0.273522 0.252543 0.153983
4 1 0.283774 0.872501 0.517999
ITEM: TIMESTEP
53
ITEM: NUMBER OF ATOMS
4
ITEM: BOX BOUNDS ff ff ff
-5.0000000000000000e+00 5.0000000000000000e+00
-5.0000000000000000e+00 5.0000000000000000e+00
-5.0000000000000000e+00 5.0000000000000000e+00
ITEM: ATOMS id type xs ys zs
1 1 0.926486 0.501561 0.802581
2 1 0.50757 0.205261 0.629032
3 1 0.273531 0.252544 0.154002
4 1 0.283776 0.872496 0.517998
ITEM: TIMESTEP
54
ITEM: NUMBER OF ATOMS
4
ITEM: BOX BOUNDS ff ff ff
-5.0000000000000000e+00 5.0000000000000000e+00
-5.0000000000000000e+00 5.0000000000000000e+00
-5.0000000000000000e+00 5.0000000000000000e+00
ITEM: ATOMS id type xs ys zs
1 1 0.926472 0.501552 0.802574
2 1 0.507574 0.205275 0.629019
3 1 0.27354 0.252544 0.154021
4 1 0.283777 0.872491 0.517998
ITEM: TIMESTEP
55
ITEM: NUMBER OF ATOMS
4
ITEM: BOX BOUNDS ff ff ff
-5.0000000000000000e+00 5.0000000000000000e+00
-5.0000000000000000e+00 5.0000000000000000e+00
-5.0000000000000000e+00 5.0000000000000000e+00
ITEM: ATOMS id type xs ys zs
1 1 0.926457 0.501543 0.802568
2 1 0.507578 0.205289 0.629006
3 1 0.273549 0.252545 0.15404
4 1 0.283779 0.872486 0.517997
ITEM: TIMESTEP
56
ITEM: NUMBER OF ATOMS
4
ITEM: BOX BOUNDS ff ff ff
-5.0000000000000000e+00 5.0000000000000000e+00
-5.0000000000000000e+00 5.0000000000000000e+00
-5.0000000000000000e+00 5.0000000000000000e+00
ITEM: ATOMS id type xs ys zs
1 1 0.926442 0.501534 0.802562
2 1 0.507582 0.205303 0.628994
3 1 0.273558 0.252545 0.15406
4 1 0.283781 0.87248 0.517997
ITEM: TIMESTEP
57
ITEM: NUMBER OF ATOMS
4
ITEM: BOX BOUNDS ff ff ff
-5.0000000000000000e+00 5.0000000000000000e+00
-5.0000000000000000e+00 5.0000000000000000e+00
-5.0000000000000000e+00 5.0000000000000000e+00
ITEM: ATOMS id type xs ys zs
1 1 0.926427 0.501525 0.802555
2 1 0.507586 0.205316 0.628981
3 1 0.273567 0.252545 0.154079
4 1 0.283783 0.872475 0.517997
ITEM: TIMESTEP
58
ITEM: NUMBER OF ATOMS
4
ITEM: BOX BOUNDS ff ff ff
-5.0000000000000000e+00 5.0000000000000000e+00
-5.0000000000000000e+00 5.0000000000000000e+00
-5.0000000000000000e+00 5.0000000000000000e+00
ITEM: ATOMS id type xs ys zs
1 1 0.926412 0.501516 0.802549
2 1 0.50759 0.20533 0.628968
3 1 0.273576 0.252546 0.154098
4 1 0.283784 0.87247 0.517996
ITEM: TIMESTEP
59
ITEM: NUMBER OF ATOMS
4
ITEM: BOX BOUNDS ff ff ff
-5.0000000000000000e+00 5.0000000000000000e+00
-5.0000000000000000e+00 5.0000000000000000e+00
-5.0000000000000000e+00 5.0000000000000000e+00
ITEM: ATOMS id type xs ys zs
1 1 0.926398 0.501506 0.802543
2 1 0.507594 0.205344 0.628956
3 1 0.273585 0.252546 0.154118
4 1 0.283786 0.872465 0.517996
ITEM: TIMESTEP
60
ITEM: NUMBER OF ATOMS
4
ITEM: BOX BOUNDS ff ff ff
-5.0000000000000000e+00 5.0000000000000000e+00
-5.0000000000000000e+00 5.0000000000000000e+00
-5.0000000000000000e+00 5.0000000000000000e+00
ITEM: ATOMS id type xs ys zs
1 1 0.926383 0.501497 0.802537
2 1 0.507598 0.205358 0.628943
3 1 0.273594 0.252547 0.154137
4 1 0.283788 0.87246 0.517996
ITEM: TIMESTEP
61
ITEM: NUMBER OF ATOMS
4
ITEM: BOX BOUNDS ff ff ff
-5.0000000000000000e+00 5.0000000000000000e+00
-5.0000000000000000e+00 5.0000000000000000e+00
-5.0000000000000000e+00 5.0000000000000000e+00
ITEM: ATOMS id type xs ys zs
1 1 0.926368 0.501488 0.80253
2 1 0.507602 0.205372 0.62893
3 1 0.273603 0.252547 0.154157
4 1 0.28379 0.872455 0.517995
ITEM: TIMESTEP
62
ITEM: NUMBER OF ATOMS
4
ITEM: BOX BOUNDS ff ff ff
-5.0000000000000000e+00 5.0000000000000000e+00
-5.0000000000000000e+00 5.0000000000000000e+00
-5.0000000000000000e+00 5.0000000000000000e+00
ITEM: ATOMS id type xs ys zs
1 1 0.926353 0.501479 0.802524
2 1 0.507606 0.205386 0.628918
3 1 0.273612 0.252547 0.154176
4 1 0.283791 0.87245 0.517995
ITEM: TIMESTEP
63
ITEM: NUMBER OF ATOMS
4
ITEM: BOX BOUNDS ff ff ff
-5.0000000000000000e+00 5.0000000000000000e+00
-5.0000000000000000e+00 5.0000000000000000e+00
-5.0000000000000000e+00 5.0000000000000000e+00
ITEM: ATOMS id type xs ys zs
1 1 0.926338 0.50147 0.802518
2 1 0.50761 0.205399 0.628905
3 1 0.273622 0.252548 0.154195
4 1 0.283793 0.872445 0.517994
ITEM: TIMESTEP
64
ITEM: NUMBER OF ATOMS
4
ITEM: BOX BOUNDS ff ff ff
-5.0000000000000000e+00 5.0000000000000000e+00
-5.0000000000000000e+00 5.0000000000000000e+00
-5.0000000000000000e+00 5.0000000000000000e+00
ITEM: ATOMS id type xs ys zs
1 1 0.926324 0.501461 0.802511
2 1 0.507613 0.205413 0.628892
3 1 0.273631 0.252548 0.154215
4 1 0.283795 0.87244 0.517994
ITEM: TIMESTEP
65
ITEM: NUMBER OF ATOMS
4
ITEM: BOX BOUNDS ff ff ff
-5.0000000000000000e+00 5.0000000000000000e+00
-5.0000000000000000e+00 5.0000000000000000e+00
-5.0000000000000000e+00 5.0000000000000000e+00
ITEM: ATOMS id type xs ys zs
1 1 0.926309 0.501451 0.802505
2 1 0.507617 0.205427 0.62888
3 1 0.27364 0.252549 0.154234
4 1 0.283797 0.872435 0.517994
ITEM: TIMESTEP
66
ITEM: NUMBER OF ATOMS
4
ITEM: BOX BOUNDS ff ff ff
-5.0000000000000000e+00 5.0000000000000000e+00
-5.0000000000000000e+00 5.0000000000000000e+00
-5.0000000000000000e+00 5.0000000000000000e+00
ITEM: ATOMS id type xs ys zs
1 1 0.926294 0.501442 0.802499
2 1 0.507621 0.205441 0.628867
3 1 0.273649 0.252549 0.154254
4 1 0.283798 0.87243 0.517993
ITEM: TIMESTEP
67
ITEM: NUMBER OF ATOMS
4
ITEM: BOX BOUNDS ff ff ff
-5.0000000000000000e+00 5.0000000000000000e+00
-5.0000000000000000e+00 5.0000000000000000e+00
-5.0000000000000000e+00 5.0000000000000000e+00
ITEM: ATOMS id type xs ys zs
1 1 0.926279 0.501433 0.802492
2 1 0.507625 0.205455 0.628854
3 1 0.273658 0.252549 0.154273
4 1 0.2838 0.872425 0.517993
ITEM: TIMESTEP
68
ITEM: NUMBER OF ATOMS
4
ITEM: BOX BOUNDS ff ff ff
-5.0000000000000000e+00 5.0000000000000000e+00
-5.0000000000000000e+00 5.0000000000000000e+00
-5.0000000000000000e+00 5.0000000000000000e+00
ITEM: ATOMS id type xs ys zs
1 1 0.926264 0.501424 0.802486
2 1 0.507629 0.205469 0.628841
3 1 0.273667 0.25255 0.154292
4 1 0.283802 0.87242 0.517992
ITEM: TIMESTEP
69
ITEM: NUMBER OF ATOMS
4
ITEM: BOX BOUNDS ff ff ff
-5.0000000000000000e+00 5.0000000000000000e+00
-5.0000000000000000e+00 5.0000000000000000e+00
-5.0000000000000000e+00 5.0000000000000000e+00
ITEM: ATOMS id type xs ys zs
1 1 0.926249 0.501415 0.80248
2 1 0.507633 0.205482 0.628829
3 1 0.273676 0.25255 0.154312
4 1 0.283804 0.872415 0.517992
ITEM: TIMESTEP
70
ITEM: NUMBER OF ATOMS
4
ITEM: BOX BOUNDS ff ff ff
-5.0000000000000000e+00 5.0000000000000000e+00
-5.0000000000000000e+00 5.0000000000000000e+00
-5.0000000000000000e+00 5.0000000000000000e+00
ITEM: ATOMS id type xs ys zs
1 1 0.926235 0.501406 0.802473
2 1 0.507637 0.205496 0.628816
3 1 0.273685 0.252551 0.154331
4 1 0.283805 0.87241 0.517992
ITEM: TIMESTEP
71
ITEM: NUMBER OF ATOMS
4
ITEM: BOX BOUNDS ff ff ff
-5.0000000000000000e+00 5.0000000000000000e+00
-5.0000000000000000e+00 5.0000000000000000e+00
-5.0000000000000000e+00 5.0000000000000000e+00
ITEM: ATOMS id type xs ys zs
1 1 0.92622 0.501396 0.802467
2 1 0.507641 0.20551 0.628803
3 1 0.273694 0.252551 0.154351
4 1 0.283807 0.872405 0.517991
ITEM: TIMESTEP
72
ITEM: NUMBER OF ATOMS
4
ITEM: BOX BOUNDS ff ff ff
-5.0000000000000000e+00 5.0000000000000000e+00
-5.0000000000000000e+00 5.0000000000000000e+00
-5.0000000000000000e+00 5.0000000000000000e+00
ITEM: ATOMS id type xs ys zs
1 1 0.926205 0.501387 0.802461
2 1 0.507645 0.205524 0.62879
3 1 0.273704 0.252551 0.15437
4 1 0.283809 0.872399 0.517991
ITEM: TIMESTEP
73
ITEM: NUMBER OF ATOMS
4
ITEM: BOX BOUNDS ff ff ff
-5.0000000000000000e+00 5.0000000000000000e+00
-5.0000000000000000e+00 5.0000000000000000e+00
-5.0000000000000000e+00 5.0000000000000000e+00
ITEM: ATOMS id type xs ys zs
1 1 0.92619 0.501378 0.802454
2 1 0.507649 0.205538 0.628778
3 1 0.273713 0.252552 0.15439
4 1 0.283811 0.872394 0.51799
ITEM: TIMESTEP
74
ITEM: NUMBER OF ATOMS
4
ITEM: BOX BOUNDS ff ff ff
-5.0000000000000000e+00 5.0000000000000000e+00
-5.0000000000000000e+00 5.0000000000000000e+00
-5.0000000000000000e+00 5.0000000000000000e+00
ITEM: ATOMS id type xs ys zs
1 1 0.926175 0.501369 0.802448
2 1 0.507653 0.205552 0.628765
3 1 0.273722 0.252552 0.154409
4 1 0.283812 0.872389 0.51799
ITEM: TIMESTEP
75
ITEM: NUMBER OF ATOMS
4
ITEM: BOX BOUNDS ff ff ff
-5.0000000000000000e+00 5.0000000000000000e+00
-5.0000000000000000e+00 5.0000000000000000e+00
-5.0000000000000000e+00 5.0000000000000000e+00
ITEM: ATOMS id type xs ys zs
1 1 0.92616 0.50136 0.802442
2 1 0.507657 0.205565 0.628752
3 1 0.273731 0.252552 0.154429
4 1 0.283814 0.872384 0.51799
ITEM: TIMESTEP
76
ITEM: NUMBER OF ATOMS
4
ITEM: BOX BOUNDS ff ff ff
-5.0000000000000000e+00 5.0000000000000000e+00
-5.0000000000000000e+00 5.0000000000000000e+00
-5.0000000000000000e+00 5.0000000000000000e+00
ITEM: ATOMS id type xs ys zs
1 1 0.926145 0.501351 0.802436
2 1 0.507661 0.205579 0.628739
3 1 0.27374 0.252553 0.154448
4 1 0.283816 0.872379 0.517989
ITEM: TIMESTEP
77
ITEM: NUMBER OF ATOMS
4
ITEM: BOX BOUNDS ff ff ff
-5.0000000000000000e+00 5.0000000000000000e+00
-5.0000000000000000e+00 5.0000000000000000e+00
-5.0000000000000000e+00 5.0000000000000000e+00
ITEM: ATOMS id type xs ys zs
1 1 0.926131 0.501341 0.802429
2 1 0.507665 0.205593 0.628727
3 1 0.273749 0.252553 0.154467
4 1 0.283818 0.872374 0.517989
ITEM: TIMESTEP
78
ITEM: NUMBER OF ATOMS
4
ITEM: BOX BOUNDS ff ff ff
-5.0000000000000000e+00 5.0000000000000000e+00
-5.0000000000000000e+00 5.0000000000000000e+00
-5.0000000000000000e+00 5.0000000000000000e+00
ITEM: ATOMS id type xs ys zs
1 1 0.926116 0.501332 0.802423
2 1 0.507669 0.205607 0.628714
3 1 0.273759 0.252554 0.154487
4 1 0.283819 0.872369 0.517988
ITEM: TIMESTEP
79
ITEM: NUMBER OF ATOMS
4
ITEM: BOX BOUNDS ff ff ff
-5.0000000000000000e+00 5.0000000000000000e+00
-5.0000000000000000e+00 5.0000000000000000e+00
-5.0000000000000000e+00 5.0000000000000000e+00
ITEM: ATOMS id type xs ys zs
1 1 0.926101 0.501323 0.802416
2 1 0.507673 0.205621 0.628701
3 1 0.273768 0.252554 0.154507
4 1 0.283821 0.872364 0.517988
ITEM: TIMESTEP
80
ITEM: NUMBER OF ATOMS
4
ITEM: BOX BOUNDS ff ff ff
-5.0000000000000000e+00 5.0000000000000000e+00
-5.0000000000000000e+00 5.0000000000000000e+00
-5.0000000000000000e+00 5.0000000000000000e+00
ITEM: ATOMS id type xs ys zs
1 1 0.926086 0.501314 0.80241
2 1 0.507677 0.205635 0.628688
3 1 0.273777 0.252554 0.154526
4 1 0.283823 0.872359 0.517988
ITEM: TIMESTEP
81
ITEM: NUMBER OF ATOMS
4
ITEM: BOX BOUNDS ff ff ff
-5.0000000000000000e+00 5.0000000000000000e+00
-5.0000000000000000e+00 5.0000000000000000e+00
-5.0000000000000000e+00 5.0000000000000000e+00
ITEM: ATOMS id type xs ys zs
1 1 0.926071 0.501305 0.802404
2 1 0.507681 0.205649 0.628676
3 1 0.273786 0.252555 0.154546
4 1 0.283825 0.872354 0.517987
ITEM: TIMESTEP
82
ITEM: NUMBER OF ATOMS
4
ITEM: BOX BOUNDS ff ff ff
-5.0000000000000000e+00 5.0000000000000000e+00
-5.0000000000000000e+00 5.0000000000000000e+00
-5.0000000000000000e+00 5.0000000000000000e+00
ITEM: ATOMS id type xs ys zs
1 1 0.926056 0.501295 0.802397
2 1 0.507685 0.205663 0.628663
3 1 0.273795 0.252555 0.154565
4 1 0.283826 0.872349 0.517987
ITEM: TIMESTEP
83
ITEM: NUMBER OF ATOMS
4
ITEM: BOX BOUNDS ff ff ff