ITEM: TIMESTEP
0
ITEM: NUMBER OF ATOMS
15
ITEM: BOX BOUNDS ff ff ff
-5.0000000000000000e+00 5.0000000000000000e+00
-5.0000000000000000e+00 5.0000000000000000e+00
-5.0000000000000000e+00 5.0000000000000000e+00
ITEM: ATOMS id type xs ys zs
1 1 0.797 0.173775 0.630612
2 1 0.694306 0.204112 0.503159
3 1 0.593929 0.158239 0.515862
4 1 0.092641 0.0168758 0.631386
5 1 0.711984 0.322508 0.391619
6 1 0.944858 0.231899 0.520073
7 1 0.873237 0.48909 0.136179
8 1 0.752732 0.163018 0.837444
9 1 0.9147 0.36906 0.792259
10 1 0.501813 0.97112 0.606285
11 1 0.838789 0.525105 0.433619
12 1 0.834897 0.10889 0.118305
13 1 0.352465 0.876166 0.728731
14 1 0.78797 0.415348 0.761265
15 1 0.575458 0.730279 0.807197
ITEM: TIMESTEP
1
ITEM: NUMBER OF ATOMS
15
ITEM: BOX BOUNDS ff ff ff
-5.0000000000000000e+00 5.0000000000000000e+00
-5.0000000000000000e+00 5.0000000000000000e+00
-5.0000000000000000e+00 5.0000000000000000e+00
ITEM: ATOMS id type xs ys zs
1 1 0.795281 0.175042 0.627551
2 1 0.701372 0.208364 0.50272
3 1 0.590407 0.15666 0.516404
4 1 0.092643 0.0168765 0.631386
5 1 0.711647 0.319424 0.394795
6 1 0.943434 0.231563 0.520866
7 1 0.873216 0.48907 0.136266
8 1 0.752997 0.16333 0.836583
9 1 0.9047 0.372437 0.789741
10 1 0.501357 0.970792 0.606693
11 1 0.838642 0.524778 0.433555
12 1 0.83489 0.108916 0.118333
13 1 0.353023 0.876402 0.728381
14 1 0.797803 0.411475 0.763587
15 1 0.575367 0.730355 0.807135
ITEM: TIMESTEP
2
ITEM: NUMBER OF ATOMS
15
ITEM: BOX BOUNDS ff ff ff
-5.0000000000000000e+00 5.0000000000000000e+00
-5.0000000000000000e+00 5.0000000000000000e+00
-5.0000000000000000e+00 5.0000000000000000e+00
ITEM: ATOMS id type xs ys zs
1 1 0.79477 0.175425 0.626611
2 1 0.701368 0.208687 0.502819
3 1 0.591428 0.157148 0.516305
4 1 0.0926436 0.0168766 0.631386
5 1 0.711563 0.318464 0.395785
6 1 0.943031 0.231469 0.521084
7 1 0.87321 0.489065 0.136289
8 1 0.753067 0.163418 0.836355
9 1 0.902042 0.373331 0.789071
10 1 0.501232 0.970702 0.606804
11 1 0.838604 0.524691 0.433539
12 1 0.834888 0.108923 0.118341
13 1 0.353176 0.876467 0.728285
14 1 0.800414 0.410442 0.764203
15 1 0.575342 0.730376 0.807118
ITEM: TIMESTEP
3
ITEM: NUMBER OF ATOMS
15
ITEM: BOX BOUNDS ff ff ff
-5.0000000000000000e+00 5.0000000000000000e+00
-5.0000000000000000e+00 5.0000000000000000e+00
-5.0000000000000000e+00 5.0000000000000000e+00
ITEM: ATOMS id type xs ys zs
1 1 0.793588 0.176317 0.624385
2 1 0.698042 0.207958 0.503371
3 1 0.597037 0.159796 0.515668
4 1 0.0926447 0.016877 0.631386
5 1 0.71139 0.316145 0.398175
6 1 0.942143 0.231267 0.521549
7 1 0.873199 0.489054 0.136337
8 1 0.753212 0.163607 0.835894
9 1 0.901648 0.37331 0.788933
10 1 0.500967 0.970512 0.60704
11 1 0.838527 0.524514 0.433508
12 1 0.834885 0.108938 0.118356
13 1 0.353498 0.876605 0.728081
14 1 0.800708 0.410164 0.764227
15 1 0.575291 0.73042 0.807084
ITEM: TIMESTEP
4
ITEM: NUMBER OF ATOMS
15
ITEM: BOX BOUNDS ff ff ff
-5.0000000000000000e+00 5.0000000000000000e+00
-5.0000000000000000e+00 5.0000000000000000e+00
-5.0000000000000000e+00 5.0000000000000000e+00
ITEM: ATOMS id type xs ys zs
1 1 0.792563 0.177045 0.622499
2 1 0.698373 0.20886 0.503364
3 1 0.598694 0.160594 0.515507
4 1 0.0926455 0.0168773 0.631386
5 1 0.711185 0.314103 0.400261
6 1 0.941419 0.231103 0.521924
7 1 0.87319 0.489046 0.136374
8 1 0.75332 0.163758 0.835551
9 1 0.903958 0.372337 0.789467
10 1 0.500757 0.970361 0.607228
11 1 0.838471 0.524382 0.433485
12 1 0.834882 0.108949 0.118369
13 1 0.353753 0.876715 0.727919
14 1 0.798317 0.410903 0.763605
15 1 0.575251 0.730454 0.807057
ITEM: TIMESTEP
5
ITEM: NUMBER OF ATOMS
15
ITEM: BOX BOUNDS ff ff ff
-5.0000000000000000e+00 5.0000000000000000e+00
-5.0000000000000000e+00 5.0000000000000000e+00
-5.0000000000000000e+00 5.0000000000000000e+00
ITEM: ATOMS id type xs ys zs
1 1 0.787725 0.18042 0.613634
2 1 0.704264 0.215328 0.502555
3 1 0.602156 0.162285 0.515275
4 1 0.0926493 0.0168786 0.631385
5 1 0.710155 0.304296 0.410261
6 1 0.938091 0.230351 0.523629
7 1 0.873153 0.48901 0.136537
8 1 0.753797 0.164435 0.834035
9 1 0.905507 0.371193 0.789704
10 1 0.499801 0.969678 0.608077
11 1 0.838223 0.523792 0.43339
12 1 0.834869 0.108998 0.118423
13 1 0.354909 0.877216 0.727182
14 1 0.79641 0.410996 0.762971
15 1 0.57507 0.730607 0.806937
ITEM: TIMESTEP
6
ITEM: NUMBER OF ATOMS
15
ITEM: BOX BOUNDS ff ff ff
-5.0000000000000000e+00 5.0000000000000000e+00
-5.0000000000000000e+00 5.0000000000000000e+00
-5.0000000000000000e+00 5.0000000000000000e+00
ITEM: ATOMS id type xs ys zs
1 1 0.783331 0.18346 0.605585
2 1 0.707272 0.220419 0.501369
3 1 0.607323 0.16493 0.51478
4 1 0.0926523 0.0168795 0.631385
5 1 0.709273 0.294873 0.419974
6 1 0.935318 0.229739 0.524992
7 1 0.873125 0.488983 0.136663
8 1 0.754153 0.164964 0.832904
9 1 0.902312 0.371912 0.788811
10 1 0.499039 0.969134 0.608754
11 1 0.838041 0.523347 0.433323
12 1 0.83486 0.109036 0.118465
13 1 0.355827 0.877618 0.726593
14 1 0.799324 0.409463 0.763554
15 1 0.57493 0.730726 0.806843
ITEM: TIMESTEP
7
ITEM: NUMBER OF ATOMS
15
ITEM: BOX BOUNDS ff ff ff
-5.0000000000000000e+00 5.0000000000000000e+00
-5.0000000000000000e+00 5.0000000000000000e+00
-5.0000000000000000e+00 5.0000000000000000e+00
ITEM: ATOMS id type xs ys zs
1 1 0.78063 0.185336 0.600663
2 1 0.708553 0.220424 0.503542
3 1 0.610725 0.16675 0.514407
4 1 0.0926537 0.01688 0.631384
5 1 0.708883 0.291854 0.423034
6 1 0.933791 0.229416 0.525695
7 1 0.873111 0.48897 0.136726
8 1 0.754324 0.165232 0.832367
9 1 0.900909 0.3722 0.788414
10 1 0.498644 0.968853 0.609105
11 1 0.837956 0.523133 0.433294
12 1 0.834855 0.109055 0.118487
13 1 0.356301 0.877828 0.726287
14 1 0.800585 0.408767 0.763797
15 1 0.574859 0.730787 0.806795
ITEM: TIMESTEP
8
ITEM: NUMBER OF ATOMS
15
ITEM: BOX BOUNDS ff ff ff
-5.0000000000000000e+00 5.0000000000000000e+00
-5.0000000000000000e+00 5.0000000000000000e+00
-5.0000000000000000e+00 5.0000000000000000e+00
ITEM: ATOMS id type xs ys zs
1 1 0.777444 0.187524 0.594926
2 1 0.710531 0.218717 0.508112
3 1 0.614107 0.168578 0.514034
4 1 0.0926552 0.0168805 0.631384
5 1 0.708471 0.290269 0.424481
6 1 0.932098 0.229065 0.526447
7 1 0.873097 0.488957 0.136791
8 1 0.7545 0.165517 0.831817
9 1 0.900491 0.372117 0.788254
10 1 0.498218 0.96855 0.609483
11 1 0.83787 0.522911 0.433265
12 1 0.83485 0.109074 0.118509
13 1 0.35681 0.878055 0.725957
14 1 0.800852 0.408418 0.763791
15 1 0.574784 0.730851 0.806745
ITEM: TIMESTEP
9
ITEM: NUMBER OF ATOMS
15
ITEM: BOX BOUNDS ff ff ff
-5.0000000000000000e+00 5.0000000000000000e+00
-5.0000000000000000e+00 5.0000000000000000e+00
-5.0000000000000000e+00 5.0000000000000000e+00
ITEM: ATOMS id type xs ys zs
1 1 0.776985 0.187898 0.593956
2 1 0.712418 0.218623 0.509392
3 1 0.613241 0.168156 0.514066
4 1 0.0926555 0.0168806 0.631384
5 1 0.708356 0.290553 0.424091
6 1 0.931668 0.228988 0.526599
7 1 0.873095 0.488954 0.136803
8 1 0.754529 0.165574 0.831733
9 1 0.901895 0.371561 0.788589
10 1 0.498126 0.968485 0.609563
11 1 0.837857 0.522874 0.433261
12 1 0.834849 0.109078 0.118513
13 1 0.356918 0.878105 0.725885
14 1 0.799418 0.408892 0.763425
15 1 0.574769 0.730863 0.806735
ITEM: TIMESTEP
10
ITEM: NUMBER OF ATOMS
15
ITEM: BOX BOUNDS ff ff ff
-5.0000000000000000e+00 5.0000000000000000e+00
-5.0000000000000000e+00 5.0000000000000000e+00
-5.0000000000000000e+00 5.0000000000000000e+00
ITEM: ATOMS id type xs ys zs
1 1 0.778349 0.187713 0.594639
2 1 0.712814 0.219266 0.508565
3 1 0.613125 0.168193 0.514027
4 1 0.0926562 0.0168809 0.631384
5 1 0.708058 0.290434 0.424101
6 1 0.930365 0.228768 0.527009
7 1 0.873089 0.488949 0.136834
8 1 0.754596 0.165724 0.831544
9 1 0.902484 0.371231 0.788708
10 1 0.497872 0.968306 0.609787
11 1 0.837828 0.522783 0.433256
12 1 0.834846 0.109087 0.118524
13 1 0.357215 0.878245 0.725686
14 1 0.79875 0.409007 0.763223
15 1 0.574731 0.730897 0.806709
ITEM: TIMESTEP
11
ITEM: NUMBER OF ATOMS
15
ITEM: BOX BOUNDS ff ff ff
-5.0000000000000000e+00 5.0000000000000000e+00
-5.0000000000000000e+00 5.0000000000000000e+00
-5.0000000000000000e+00 5.0000000000000000e+00
ITEM: ATOMS id type xs ys zs
1 1 0.782365 0.187629 0.595586
2 1 0.714658 0.219695 0.508191
3 1 0.61363 0.168823 0.513814
4 1 0.0926588 0.0168818 0.631384
5 1 0.706861 0.290904 0.423053
6 1 0.925365 0.227916 0.528589
7 1 0.873067 0.488928 0.13695
8 1 0.754851 0.166292 0.830833
9 1 0.903203 0.370534 0.788787
10 1 0.496907 0.967627 0.610636
11 1 0.837718 0.522439 0.433236
12 1 0.834838 0.109122 0.118565
13 1 0.358339 0.878776 0.724929
14 1 0.797732 0.408895 0.762832
15 1 0.574586 0.731023 0.806611
ITEM: TIMESTEP
12
ITEM: NUMBER OF ATOMS
15
ITEM: BOX BOUNDS ff ff ff
-5.0000000000000000e+00 5.0000000000000000e+00
-5.0000000000000000e+00 5.0000000000000000e+00
-5.0000000000000000e+00 5.0000000000000000e+00
ITEM: ATOMS id type xs ys zs
1 1 0.787737 0.188958 0.593566
2 1 0.718738 0.2179 0.51137
3 1 0.61681 0.171198 0.513211
4 1 0.0926636 0.0168834 0.631383
5 1 0.704539 0.291873 0.420958
6 1 0.915365 0.226157 0.53182
7 1 0.873026 0.488888 0.13717
8 1 0.755336 0.167365 0.829488
9 1 0.901268 0.370413 0.788125
10 1 0.495052 0.966325 0.612265
11 1 0.837512 0.521791 0.433197
12 1 0.834821 0.109187 0.118643
13 1 0.360495 0.8798 0.723475
14 1 0.799103 0.407484 0.762901
15 1 0.574313 0.731261 0.806425
ITEM: TIMESTEP
13
ITEM: NUMBER OF ATOMS
15
ITEM: BOX BOUNDS ff ff ff
-5.0000000000000000e+00 5.0000000000000000e+00
-5.0000000000000000e+00 5.0000000000000000e+00
-5.0000000000000000e+00 5.0000000000000000e+00
ITEM: ATOMS id type xs ys zs
1 1 0.793755 0.190304 0.591686
2 1 0.72169 0.218046 0.511776
3 1 0.619947 0.173539 0.512574
4 1 0.092668 0.016885 0.631382
5 1 0.702712 0.290904 0.421286
6 1 0.905365 0.224315 0.535145
7 1 0.872988 0.488851 0.137369
8 1 0.755781 0.168345 0.828264
9 1 0.900053 0.370102 0.787655
10 1 0.493327 0.965114 0.61378
11 1 0.837325 0.521203 0.433162
12 1 0.834806 0.109247 0.118714
13 1 0.362495 0.880756 0.722119
14 1 0.799804 0.406395 0.762828
15 1 0.574064 0.731478 0.806256
ITEM: TIMESTEP
14
ITEM: NUMBER OF ATOMS
15
ITEM: BOX BOUNDS ff ff ff
-5.0000000000000000e+00 5.0000000000000000e+00
-5.0000000000000000e+00 5.0000000000000000e+00
-5.0000000000000000e+00 5.0000000000000000e+00
ITEM: ATOMS id type xs ys zs
1 1 0.800618 0.19182 0.589642
2 1 0.724144 0.220039 0.50991
3 1 0.622046 0.175373 0.511905
4 1 0.0926716 0.0168862 0.631382
5 1 0.701521 0.288408 0.423608
6 1 0.895365 0.222306 0.538665
7 1 0.872957 0.488822 0.137531
8 1 0.756151 0.169154 0.827265
9 1 0.901242 0.369049 0.78781
10 1 0.491849 0.96408 0.615075
11 1 0.837171 0.520724 0.433134
12 1 0.834794 0.109295 0.118771
13 1 0.364197 0.881581 0.720955
14 1 0.798191 0.406289 0.762225
15 1 0.57386 0.731657 0.806117
ITEM: TIMESTEP
15
ITEM: NUMBER OF ATOMS
15
ITEM: BOX BOUNDS ff ff ff
-5.0000000000000000e+00 5.0000000000000000e+00
-5.0000000000000000e+00 5.0000000000000000e+00
-5.0000000000000000e+00 5.0000000000000000e+00
ITEM: ATOMS id type xs ys zs
1 1 0.800668 0.192238 0.588775
2 1 0.725915 0.220387 0.510214
3 1 0.622457 0.17593 0.511553
4 1 0.0926724 0.0168865 0.631382
5 1 0.701155 0.287496 0.424476
6 1 0.893547 0.222092 0.539005
7 1 0.87295 0.488815 0.137568
8 1 0.756243 0.169348 0.827038
9 1 0.901259 0.368892 0.787779
10 1 0.491429 0.963789 0.615441
11 1 0.837136 0.520616 0.433129
12 1 0.834791 0.109306 0.118784
13 1 0.36467 0.881823 0.72062
14 1 0.798074 0.406166 0.762147
15 1 0.573812 0.731699 0.806084
ITEM: TIMESTEP
16
ITEM: NUMBER OF ATOMS
15
ITEM: BOX BOUNDS ff ff ff
-5.0000000000000000e+00 5.0000000000000000e+00
-5.0000000000000000e+00 5.0000000000000000e+00
-5.0000000000000000e+00 5.0000000000000000e+00
ITEM: ATOMS id type xs ys zs
1 1 0.800044 0.192237 0.588712
2 1 0.726791 0.220451 0.510444
3 1 0.622894 0.176377 0.511299
4 1 0.0926728 0.0168866 0.631382
5 1 0.70089 0.286989 0.42493
6 1 0.893148 0.222198 0.538802
7 1 0.872946 0.488811 0.137588
8 1 0.756296 0.169458 0.826913
9 1 0.901183 0.368834 0.78774
10 1 0.491174 0.963613 0.615662
11 1 0.837117 0.520556 0.433126
12 1 0.83479 0.109312 0.118792
13 1 0.364954 0.881972 0.720417
14 1 0.798094 0.406065 0.762124
15 1 0.573785 0.731723 0.806065
ITEM: TIMESTEP
17
ITEM: NUMBER OF ATOMS
15
ITEM: BOX BOUNDS ff ff ff
-5.0000000000000000e+00 5.0000000000000000e+00
-5.0000000000000000e+00 5.0000000000000000e+00
-5.0000000000000000e+00 5.0000000000000000e+00
ITEM: ATOMS id type xs ys zs
1 1 0.798173 0.191172 0.590876
2 1 0.726424 0.220136 0.510227
3 1 0.624369 0.17749 0.510777
4 1 0.0926732 0.0168868 0.631382
5 1 0.700281 0.286552 0.425153
6 1 0.894543 0.223023 0.53733
7 1 0.872942 0.488807 0.13761
8 1 0.756358 0.169583 0.826783
9 1 0.900872 0.368847 0.787639
10 1 0.490811 0.963365 0.615975
11 1 0.837098 0.520495 0.433123
12 1 0.834788 0.109319 0.118799
13 1 0.365349 0.882189 0.720123
14 1 0.798341 0.405869 0.762153
15 1 0.573756 0.73175 0.806045
ITEM: TIMESTEP
18
ITEM: NUMBER OF ATOMS
15
ITEM: BOX BOUNDS ff ff ff
-5.0000000000000000e+00 5.0000000000000000e+00
-5.0000000000000000e+00 5.0000000000000000e+00
-5.0000000000000000e+00 5.0000000000000000e+00
ITEM: ATOMS id type xs ys zs
1 1 0.794882 0.188515 0.59694
2 1 0.731185 0.219227 0.511303
3 1 0.628257 0.182241 0.507522
4 1 0.0926758 0.0168877 0.631381
5 1 0.696222 0.284283 0.425922
6 1 0.893385 0.224832 0.533757
7 1 0.872917 0.488784 0.137739
8 1 0.756738 0.170342 0.825979
9 1 0.900258 0.368469 0.787345
10 1 0.488579 0.961842 0.617898
11 1 0.83698 0.520127 0.43311
12 1 0.834777 0.109357 0.118846
13 1 0.367773 0.883525 0.71832
14 1 0.798569 0.405139 0.762015
15 1 0.57358 0.731914 0.805919
ITEM: TIMESTEP
19
ITEM: NUMBER OF ATOMS
15
ITEM: BOX BOUNDS ff ff ff
-5.0000000000000000e+00 5.0000000000000000e+00
-5.0000000000000000e+00 5.0000000000000000e+00
-5.0000000000000000e+00 5.0000000000000000e+00
ITEM: ATOMS id type xs ys zs
1 1 0.795767 0.186765 0.602056
2 1 0.741185 0.220766 0.511021
3 1 0.63012 0.187988 0.502436
4 1 0.0926792 0.0168889 0.631381
5 1 0.690853 0.279238 0.42918
6 1 0.886191 0.225315 0.532237
7 1 0.872884 0.488753 0.137912
8 1 0.757257 0.171371 0.824863
9 1 0.901085 0.367359 0.787364
10 1 0.485424 0.959693 0.620612
11 1 0.836824 0.519636 0.433092
12 1 0.834764 0.109408 0.118908
13 1 0.371188 0.885422 0.715767
14 1 0.797218 0.404746 0.761417
15 1 0.573342 0.732135 0.805749
ITEM: TIMESTEP
20
ITEM: NUMBER OF ATOMS
15
ITEM: BOX BOUNDS ff ff ff
-5.0000000000000000e+00 5.0000000000000000e+00
-5.0000000000000000e+00 5.0000000000000000e+00
-5.0000000000000000e+00 5.0000000000000000e+00
ITEM: ATOMS id type xs ys zs
1 1 0.799351 0.186837 0.603411
2 1 0.746497 0.221404 0.510128
3 1 0.636126 0.194998 0.497592
4 1 0.0926818 0.0168898 0.63138
5 1 0.686082 0.27327 0.433684
6 1 0.876191 0.224298 0.533283
7 1 0.87286 0.48873 0.138043
8 1 0.757659 0.172159 0.823975
9 1 0.900554 0.366929 0.787091
10 1 0.482719 0.957857 0.622933
11 1 0.836711 0.519271 0.43308
12 1 0.834753 0.109446 0.118955
13 1 0.374089 0.887065 0.71357
14 1 0.797346 0.404026 0.761251
15 1 0.573161 0.732304 0.805619
ITEM: TIMESTEP
21
ITEM: NUMBER OF ATOMS
15
ITEM: BOX BOUNDS ff ff ff
-5.0000000000000000e+00 5.0000000000000000e+00
-5.0000000000000000e+00 5.0000000000000000e+00
-5.0000000000000000e+00 5.0000000000000000e+00
ITEM: ATOMS id type xs ys zs
1 1 0.799129 0.186717 0.60379
2 1 0.748136 0.221033 0.510757
3 1 0.637416 0.195942 0.497129
4 1 0.0926822 0.01689 0.63138
5 1 0.685223 0.272844 0.433826
6 1 0.87436 0.224387 0.532797
7 1 0.872856 0.488727 0.138063
8 1 0.757728 0.172289 0.823819
9 1 0.900363 0.366895 0.787021
10 1 0.482128 0.957459 0.623438
11 1 0.836694 0.519215 0.433078
12 1 0.834751 0.109452 0.118962
13 1 0.374712 0.887432 0.713086
14 1 0.79747 0.403869 0.76125
15 1 0.573132 0.732332 0.805597
ITEM: TIMESTEP
22
ITEM: NUMBER OF ATOMS
15
ITEM: BOX BOUNDS ff ff ff
-5.0000000000000000e+00 5.0000000000000000e+00
-5.0000000000000000e+00 5.0000000000000000e+00
-5.0000000000000000e+00 5.0000000000000000e+00
ITEM: ATOMS id type xs ys zs
1 1 0.796483 0.18527 0.60703
2 1 0.752125 0.220633 0.511199
3 1 0.639979 0.195241 0.498942
4 1 0.092683 0.0168903 0.63138
5 1 0.685956 0.274445 0.432459
6 1 0.869748 0.225599 0.529168
7 1 0.872847 0.488719 0.138109
8 1 0.757899 0.172598 0.823424
9 1 0.900026 0.366774 0.786888
10 1 0.480246 0.9562 0.625037
11 1 0.836662 0.519096 0.433077
12 1 0.834747 0.109466 0.118979
13 1 0.376667 0.888616 0.711535
14 1 0.797647 0.403538 0.761219
15 1 0.573064 0.732398 0.805546
ITEM: TIMESTEP
23
ITEM: NUMBER OF ATOMS
15
ITEM: BOX BOUNDS ff ff ff
-5.0000000000000000e+00 5.0000000000000000e+00
-5.0000000000000000e+00 5.0000000000000000e+00
-5.0000000000000000e+00 5.0000000000000000e+00
ITEM: ATOMS id type xs ys zs
1 1 0.795772 0.184825 0.608217
2 1 0.753549 0.220952 0.510422
3 1 0.642408 0.195411 0.499732
4 1 0.0926836 0.0168905 0.63138
5 1 0.686871 0.274333 0.432923
6 1 0.865708 0.225835 0.527834
7 1 0.872842 0.488714 0.138138
8 1 0.758009 0.172796 0.823161
9 1 0.900043 0.366612 0.786862
10 1 0.478891 0.955295 0.626187
11 1 0.836641 0.519021 0.433076
12 1 0.834745 0.109474 0.11899
13 1 0.378068 0.889474 0.710417
14 1 0.797526 0.40341 0.761142
15 1 0.573022 0.732441 0.805514
ITEM: TIMESTEP
24
ITEM: NUMBER OF ATOMS
15
ITEM: BOX BOUNDS ff ff ff
-5.0000000000000000e+00 5.0000000000000000e+00
-5.0000000000000000e+00 5.0000000000000000e+00
-5.0000000000000000e+00 5.0000000000000000e+00
ITEM: ATOMS id type xs ys zs
1 1 0.796119 0.185471 0.606983
2 1 0.752019 0.221495 0.509333
3 1 0.644418 0.195921 0.499976
4 1 0.0926839 0.0168906 0.63138
5 1 0.688118 0.273203 0.434536
6 1 0.863644 0.225377 0.528539
7 1 0.872838 0.48871 0.138157
8 1 0.758086 0.17293 0.822965
9 1 0.900241 0.366437 0.786894
10 1 0.477615 0.954447 0.627266
11 1 0.836628 0.518972 0.433076
12 1 0.834744 0.10948 0.118997
13 1 0.379375 0.890289 0.709359
14 1 0.797258 0.40339 0.761043
15 1 0.572993 0.73247 0.805491
ITEM: TIMESTEP
25
ITEM: NUMBER OF ATOMS
15
ITEM: BOX BOUNDS ff ff ff
-5.0000000000000000e+00 5.0000000000000000e+00
-5.0000000000000000e+00 5.0000000000000000e+00
-5.0000000000000000e+00 5.0000000000000000e+00
ITEM: ATOMS id type xs ys zs
1 1 0.795779 0.185786 0.606351
2 1 0.752202 0.221667 0.509275
3 1 0.645013 0.195591 0.500615
4 1 0.0926842 0.0168907 0.63138
5 1 0.688993 0.27323 0.434827
6 1 0.86234 0.225301 0.528521
7 1 0.872835 0.488707 0.138175
8 1 0.758158 0.173057 0.822782
9 1 0.90028 0.366324 0.786887
10 1 0.476336 0.953598 0.628347
11 1 0.836616 0.518925 0.433076
12 1 0.834742 0.109485 0.119004
13 1 0.380682 0.891108 0.708298
14 1 0.797152 0.403318 0.760987
15 1 0.572967 0.732497 0.80547
ITEM: TIMESTEP
26
ITEM: NUMBER OF ATOMS
15
ITEM: BOX BOUNDS ff ff ff
-5.0000000000000000e+00 5.0000000000000000e+00
-5.0000000000000000e+00 5.0000000000000000e+00
-5.0000000000000000e+00 5.0000000000000000e+00
ITEM: ATOMS id type xs ys zs
1 1 0.792919 0.185036 0.607863
2 1 0.755138 0.221209 0.51089
3 1 0.643617 0.193701 0.502335
4 1 0.0926849 0.016891 0.63138
5 1 0.689449 0.275343 0.432851
6 1 0.863225 0.226516 0.526131
7 1 0.872828 0.488701 0.138214
8 1 0.758315 0.173334 0.822388
9 1 0.899926 0.366237 0.786761
10 1 0.473143 0.951481 0.631044
11 1 0.836589 0.518822 0.433076
12 1 0.834739 0.109496 0.119018
13 1 0.383938 0.893157 0.705647
14 1 0.79736 0.403002 0.760974
15 1 0.572909 0.732558 0.805423
ITEM: TIMESTEP
27
ITEM: NUMBER OF ATOMS
15
ITEM: BOX BOUNDS ff ff ff
-5.0000000000000000e+00 5.0000000000000000e+00
-5.0000000000000000e+00 5.0000000000000000e+00
-5.0000000000000000e+00 5.0000000000000000e+00
ITEM: ATOMS id type xs ys zs
1 1 0.790131 0.1842 0.609781
2 1 0.755626 0.221117 0.511169
3 1 0.64339 0.192377 0.503958
4 1 0.0926859 0.0168913 0.63138
5 1 0.690202 0.276679 0.431806
6 1 0.865032 0.227759 0.524044
7 1 0.872818 0.488691 0.138269
8 1 0.758539 0.17373 0.821822
9 1 0.899569 0.366059 0.78662
10 1 0.468313 0.94828 0.635122
11 1 0.83655 0.518676 0.433076
12 1 0.834734 0.109512 0.119039
13 1 0.388858 0.896262 0.701633
14 1 0.797507 0.402606 0.760919
15 1 0.572826 0.732645 0.805356
ITEM: TIMESTEP
28
ITEM: NUMBER OF ATOMS
15
ITEM: BOX BOUNDS ff ff ff
-5.0000000000000000e+00 5.0000000000000000e+00
-5.0000000000000000e+00 5.0000000000000000e+00
-5.0000000000000000e+00 5.0000000000000000e+00
ITEM: ATOMS id type xs ys zs
1 1 0.790981 0.184594 0.609211
2 1 0.752604 0.221637 0.509481
3 1 0.64545 0.193761 0.503299
4 1 0.0926861 0.0168914 0.63138
5 1 0.690477 0.274913 0.433753
6 1 0.864878 0.227311 0.525204
7 1 0.872815 0.488689 0.138283
8 1 0.758597 0.173834 0.821664
9 1 0.899868 0.365872 0.786683
10 1 0.467164 0.947516 0.636094
11 1 0.836539 0.518637 0.433076
12 1 0.834733 0.109517 0.119044
13 1 0.390029 0.897 0.700678
14 1 0.797152 0.402642 0.760806
15 1 0.572804 0.732668 0.805338
ITEM: TIMESTEP
29
ITEM: NUMBER OF ATOMS
15
ITEM: BOX BOUNDS ff ff ff
-5.0000000000000000e+00 5.0000000000000000e+00
-5.0000000000000000e+00 5.0000000000000000e+00
-5.0000000000000000e+00 5.0000000000000000e+00
ITEM: ATOMS id type xs ys zs
1 1 0.79212 0.185735 0.606949
2 1 0.753443 0.221717 0.50975
3 1 0.646282 0.195067 0.50235
4 1 0.0926864 0.0168915 0.63138
5 1 0.68993 0.27341 0.435164
6 1 0.862626 0.226397 0.526975
7 1 0.872812 0.488686 0.138301
8 1 0.758672 0.173968 0.821462
9 1 0.899993 0.365726 0.786699
10 1 0.46665 0.947162 0.636539
11 1 0.836526 0.518588 0.433076
12 1 0.834732 0.109522 0.119051
13 1 0.390573 0.89732 0.700256
14 1 0.796957 0.402596 0.760728
15 1 0.572777 0.732699 0.805314
ITEM: TIMESTEP
30
ITEM: NUMBER OF ATOMS
15
ITEM: BOX BOUNDS ff ff ff
-5.0000000000000000e+00 5.0000000000000000e+00
-5.0000000000000000e+00 5.0000000000000000e+00
-5.0000000000000000e+00 5.0000000000000000e+00
ITEM: ATOMS id type xs ys zs
1 1 0.793223 0.186134 0.606519
2 1 0.753864 0.221896 0.509312
3 1 0.645626 0.194984 0.502397
4 1 0.0926868 0.0168917 0.63138
5 1 0.689357 0.27362 0.434796
6 1 0.862347 0.22583 0.528465
7 1 0.872808 0.488682 0.138324
8 1 0.758767 0.174141 0.821211
9 1 0.899811 0.36566 0.786634
10 1 0.467229 0.947519 0.636075
11 1 0.83651 0.518526 0.433077
12 1 0.83473 0.109529 0.11906
13 1 0.390032 0.89692 0.70075
14 1 0.797047 0.402415 0.760713
15 1 0.572741 0.732738 0.805283
ITEM: TIMESTEP
31
ITEM: NUMBER OF ATOMS
15
ITEM: BOX BOUNDS ff ff ff
-5.0000000000000000e+00 5.0000000000000000e+00
-5.0000000000000000e+00 5.0000000000000000e+00
-5.0000000000000000e+00 5.0000000000000000e+00
ITEM: ATOMS id type xs ys zs
1 1 0.793464 0.186143 0.606674
2 1 0.753675 0.221968 0.508999
3 1 0.645484 0.194972 0.502441
4 1 0.092687 0.0168917 0.63138
5 1 0.689132 0.273707 0.434651
6 1 0.862669 0.225737 0.528861
7 1 0.872806 0.48868 0.138334
8 1 0.758811 0.17422 0.821097
9 1 0.899757 0.365619 0.786611
10 1 0.467347 0.947587 0.635985
11 1 0.836502 0.518497 0.433077
12 1 0.834729 0.109532 0.119064
13 1 0.389931 0.896833 0.700854
14 1 0.79706 0.402342 0.760698
15 1 0.572725 0.732756 0.805269
ITEM: TIMESTEP
32
ITEM: NUMBER OF ATOMS
15
ITEM: BOX BOUNDS ff ff ff
-5.0000000000000000e+00 5.0000000000000000e+00
-5.0000000000000000e+00 5.0000000000000000e+00
-5.0000000000000000e+00 5.0000000000000000e+00
ITEM: ATOMS id type xs ys zs
1 1 0.792939 0.185844 0.607426
2 1 0.753246 0.221893 0.508816
3 1 0.645662 0.195073 0.5025
4 1 0.0926873 0.0168918 0.63138
5 1 0.688829 0.273779 0.434507
6 1 0.863757 0.226025 0.528569
7 1 0.872803 0.488677 0.138349
8 1 0.758873 0.174331 0.820939
9 1 0.899795 0.365521 0.786607
10 1 0.467034 0.947367 0.63626
11 1 0.836492 0.518458 0.433077
12 1 0.834728 0.109536 0.119069
13 1 0.390269 0.897024 0.700598
14 1 0.796964 0.40228 0.760649
15 1 0.572703 0.732782 0.80525
ITEM: TIMESTEP
33
ITEM: NUMBER OF ATOMS
15
ITEM: BOX BOUNDS ff ff ff
-5.0000000000000000e+00 5.0000000000000000e+00
-5.0000000000000000e+00 5.0000000000000000e+00
-5.0000000000000000e+00 5.0000000000000000e+00
ITEM: ATOMS id type xs ys zs
1 1 0.792946 0.185986 0.607158
2 1 0.753826 0.221837 0.509067
3 1 0.645525 0.195051 0.502528
4 1 0.0926874 0.0168919 0.63138
5 1 0.688695 0.273833 0.434421
6 1 0.863445 0.225947 0.52873
7 1 0.872802 0.488676 0.138356
8 1 0.7589 0.174381 0.820868
9 1 0.899773 0.365491 0.786596
10 1 0.467064 0.947381 0.63624
11 1 0.836487 0.518441 0.433077
12 1 0.834727 0.109538 0.119072
13 1 0.390249 0.896998 0.700626
14 1 0.796959 0.402239 0.760637
15 1 0.572693 0.732793 0.805241
ITEM: TIMESTEP
34
ITEM: NUMBER OF ATOMS
15
ITEM: BOX BOUNDS ff ff ff
-5.0000000000000000e+00 5.0000000000000000e+00
-5.0000000000000000e+00 5.0000000000000000e+00
-5.0000000000000000e+00 5.0000000000000000e+00
ITEM: ATOMS id type xs ys zs
1 1 0.792944 0.186051 0.607099
2 1 0.753884 0.221874 0.508991
3 1 0.645585 0.195102 0.502558
4 1 0.0926875 0.0168919 0.63138
5 1 0.688637 0.273776 0.434478
6 1 0.863393 0.225904 0.528891
7 1 0.8728 0.488675 0.138364
8 1 0.758936 0.174447 0.820774
9 1 0.89975 0.365449 0.786583
10 1 0.467089 0.947388 0.636227
11 1 0.836481 0.518418 0.433077
12 1 0.834726 0.10954 0.119075
13 1 0.390239 0.896974 0.70065
14 1 0.796947 0.402187 0.76062
15 1 0.57268 0.732807 0.80523
ITEM: TIMESTEP
35
ITEM: NUMBER OF ATOMS
15
ITEM: BOX BOUNDS ff ff ff
-5.0000000000000000e+00 5.0000000000000000e+00
-5.0000000000000000e+00 5.0000000000000000e+00
-5.0000000000000000e+00 5.0000000000000000e+00
ITEM: ATOMS id type xs ys zs
1 1 0.792884 0.186055 0.607193
2 1 0.753703 0.221945 0.508767
3 1 0.645714 0.19515 0.502627
4 1 0.0926877 0.016892 0.63138
5 1 0.688609 0.273714 0.434553
6 1 0.863539 0.225904 0.529014
7 1 0.872799 0.488673 0.138374
8 1 0.758981 0.174527 0.82066
9 1 0.899729 0.365396 0.786568
10 1 0.467095 0.947383 0.63623
11 1 0.836474 0.51839 0.433077
12 1 0.834726 0.109543 0.119079
13 1 0.390249 0.89696 0.70066
14 1 0.796927 0.402125 0.760598
15 1 0.572664 0.732825 0.805216
ITEM: TIMESTEP
36
ITEM: NUMBER OF ATOMS
15
ITEM: BOX BOUNDS ff ff ff
-5.0000000000000000e+00 5.0000000000000000e+00
-5.0000000000000000e+00 5.0000000000000000e+00
-5.0000000000000000e+00 5.0000000000000000e+00
ITEM: ATOMS id type xs ys zs
1 1 0.790987 0.186903 0.607643
2 1 0.754595 0.222732 0.506471
3 1 0.647061 0.195495 0.504679
4 1 0.0926922 0.0168937 0.631379
5 1 0.687047 0.273534 0.434765
6 1 0.864918 0.225685 0.532072
7 1 0.872751 0.488628 0.138635
8 1 0.760098 0.176548 0.817774
9 1 0.899203 0.364054 0.786201
10 1 0.467234 0.94722 0.63634
11 1 0.836288 0.517691 0.43308
12 1 0.834704 0.10962 0.119176
13 1 0.390543 0.896626 0.700889
14 1 0.796396 0.400578 0.760026
15 1 0.572261 0.733277 0.804864
ITEM: TIMESTEP
37
ITEM: NUMBER OF ATOMS
15
ITEM: BOX BOUNDS ff ff ff
-5.0000000000000000e+00 5.0000000000000000e+00
-5.0000000000000000e+00 5.0000000000000000e+00
-5.0000000000000000e+00 5.0000000000000000e+00
ITEM: ATOMS id type xs ys zs
1 1 0.784896 0.189799 0.607996
2 1 0.759731 0.2246 0.501234
3 1 0.65052 0.196203 0.511037
4 1 0.0927058 0.0168987 0.631377
5 1 0.682023 0.273492 0.434798
6 1 0.867915 0.224989 0.540999
7 1 0.872608 0.488493 0.139416
8 1 0.763453 0.182618 0.809111
9 1 0.897633 0.360023 0.785104
10 1 0.467631 0.946719 0.636688
11 1 0.835731 0.515597 0.433088
12 1 0.834641 0.109848 0.119468
13 1 0.391445 0.895637 0.701558
14 1 0.794794 0.395936 0.758312
15 1 0.571054 0.734632 0.80381
ITEM: TIMESTEP
38
ITEM: NUMBER OF ATOMS
15
ITEM: BOX BOUNDS ff ff ff
-5.0000000000000000e+00 5.0000000000000000e+00
-5.0000000000000000e+00 5.0000000000000000e+00
-5.0000000000000000e+00 5.0000000000000000e+00
ITEM: ATOMS id type xs ys zs
1 1 0.776548 0.194 0.605435
2 1 0.766636 0.226141 0.498229
3 1 0.656867 0.197833 0.518155
4 1 0.0927212 0.0169044 0.631375
5 1 0.677325 0.272262 0.436357
6 1 0.868249 0.224249 0.549911
7 1 0.872445 0.48834 0.140303
8 1 0.767316 0.189635 0.799111
9 1 0.895846 0.355372 0.783859
10 1 0.467998 0.946093 0.637155
11 1 0.835098 0.513217 0.433099
12 1 0.834568 0.110106 0.119799
13 1 0.392557 0.894566 0.702249
14 1 0.792926 0.390589 0.75635
15 1 0.569677 0.736177 0.80261
ITEM: TIMESTEP
39
ITEM: NUMBER OF ATOMS
15
ITEM: BOX BOUNDS ff ff ff
-5.0000000000000000e+00 5.0000000000000000e+00
-5.0000000000000000e+00 5.0000000000000000e+00
-5.0000000000000000e+00 5.0000000000000000e+00
ITEM: ATOMS id type xs ys zs
1 1 0.766548 0.197785 0.602525
2 1 0.76975 0.228253 0.494956
3 1 0.66643 0.199924 0.525323
4 1 0.0927355 0.0169097 0.631373
5 1 0.675698 0.26968 0.439829
6 1 0.867714 0.223891 0.556876
7 1 0.872294 0.488197 0.141126
8 1 0.770985 0.19638 0.789585
9 1 0.894114 0.35095 0.782689
10 1 0.468382 0.945539 0.637553
11 1 0.83451 0.511008 0.433109
12 1 0.834501 0.110346 0.120106
13 1 0.393552 0.893537 0.702931
14 1 0.791172 0.385464 0.754524
15 1 0.568392 0.737618 0.801491
ITEM: TIMESTEP
40
ITEM: NUMBER OF ATOMS
15
ITEM: BOX BOUNDS ff ff ff
-5.0000000000000000e+00 5.0000000000000000e+00
-5.0000000000000000e+00 5.0000000000000000e+00
-5.0000000000000000e+00 5.0000000000000000e+00
ITEM: ATOMS id type xs ys zs
1 1 0.761285 0.199603 0.599846
2 1 0.771482 0.229929 0.493281
3 1 0.671805 0.199884 0.530825
4 1 0.0927414 0.0169119 0.631372
5 1 0.676808 0.268621 0.441435
6 1 0.864999 0.223628 0.559135
7 1 0.872232 0.488138 0.141467
8 1 0.772598 0.199476 0.785378
9 1 0.893319 0.348982 0.782191
10 1 0.468581 0.945334 0.637686
11 1 0.834266 0.510091 0.433115
12 1 0.834474 0.110446 0.120232
13 1 0.393932 0.893079 0.703251
14 1 0.790403 0.383138 0.753758
15 1 0.567852 0.738224 0.801023
ITEM: TIMESTEP
41
ITEM: NUMBER OF ATOMS
15
ITEM: BOX BOUNDS ff ff ff
-5.0000000000000000e+00 5.0000000000000000e+00
-5.0000000000000000e+00 5.0000000000000000e+00
-5.0000000000000000e+00 5.0000000000000000e+00
ITEM: ATOMS id type xs ys zs
1 1 0.76125 0.199883 0.599853
2 1 0.77259 0.230852 0.492331
3 1 0.671776 0.199834 0.531609
4 1 0.092742 0.0169121 0.631372
5 1 0.677994 0.267862 0.442583
6 1 0.862834 0.223514 0.558989
7 1 0.872225 0.488131 0.141505
8 1 0.772882 0.200175 0.784648
9 1 0.893169 0.348598 0.782129
10 1 0.468597 0.945303 0.637709
11 1 0.834238 0.509986 0.433117
12 1 0.834471 0.110456 0.120246
13 1 0.393989 0.893027 0.703283
14 1 0.790239 0.38265 0.753656
15 1 0.567784 0.7383 0.800965
ITEM: TIMESTEP
42
ITEM: NUMBER OF ATOMS
15
ITEM: BOX BOUNDS ff ff ff
-5.0000000000000000e+00 5.0000000000000000e+00
-5.0000000000000000e+00 5.0000000000000000e+00
-5.0000000000000000e+00 5.0000000000000000e+00
ITEM: ATOMS id type xs ys zs
1 1 0.7608 0.20011 0.599821
2 1 0.77196 0.230994 0.492392