ITEM: TIMESTEP
0
ITEM: NUMBER OF ATOMS
22
ITEM: BOX BOUNDS ff ff ff
-5.0000000000000000e+00 5.0000000000000000e+00
-5.0000000000000000e+00 5.0000000000000000e+00
-5.0000000000000000e+00 5.0000000000000000e+00
ITEM: ATOMS id type xs ys zs
1 1 0.157456 0.369354 0.730714
2 1 0.109207 0.440635 0.756829
3 1 0.0311305 0.209596 0.68054
4 1 0.82897 0.499566 0.205029
5 1 0.930365 0.645774 0.524059
6 1 0.858857 0.813985 0.64266
7 1 0.17911 0.301175 0.849654
8 1 0.138319 0.720471 0.954441
9 1 0.283919 0.829783 0.155242
10 1 0.152378 0.00908531 0.696808
11 1 0.250146 0.196979 0.62465
12 1 0.487728 0.247609 0.572107
13 1 0.396019 0.887378 0.154363
14 1 0.37548 0.695132 0.0884193
15 1 0.0639121 0.170926 0.755576
16 1 0.971255 0.885473 0.141914
17 1 0.151429 0.0663876 0.777009
18 1 0.184174 0.404394 0.656446
19 1 0.896178 0.0591944 0.879475
20 1 0.331806 0.658394 0.630914
21 1 0.774176 0.567799 0.00524149
22 1 0.0937063 0.921793 0.573891
ITEM: TIMESTEP
1
ITEM: NUMBER OF ATOMS
22
ITEM: BOX BOUNDS ff ff ff
-5.0000000000000000e+00 5.0000000000000000e+00
-5.0000000000000000e+00 5.0000000000000000e+00
-5.0000000000000000e+00 5.0000000000000000e+00
ITEM: ATOMS id type xs ys zs
1 1 0.157363 0.364415 0.734859
2 1 0.107523 0.443149 0.757723
3 1 0.0300923 0.21083 0.678149
4 1 0.828969 0.499567 0.205027
5 1 0.930364 0.645776 0.52406
6 1 0.858858 0.813983 0.642658
7 1 0.179098 0.301197 0.84961
8 1 0.138319 0.720471 0.95444
9 1 0.283973 0.8298 0.155238
10 1 0.152382 0.00867608 0.696226
11 1 0.25014 0.19698 0.624655
12 1 0.487727 0.247609 0.572107
13 1 0.39597 0.887349 0.154362
14 1 0.375475 0.695143 0.0884242
15 1 0.0649911 0.169663 0.757975
16 1 0.971255 0.885473 0.141914
17 1 0.151395 0.0668396 0.777583
18 1 0.185958 0.406783 0.651446
19 1 0.896178 0.0591944 0.879475
20 1 0.331805 0.658394 0.630914
21 1 0.774176 0.567799 0.00524361
22 1 0.0937064 0.921793 0.573891
ITEM: TIMESTEP
2
ITEM: NUMBER OF ATOMS
22
ITEM: BOX BOUNDS ff ff ff
-5.0000000000000000e+00 5.0000000000000000e+00
-5.0000000000000000e+00 5.0000000000000000e+00
-5.0000000000000000e+00 5.0000000000000000e+00
ITEM: ATOMS id type xs ys zs
1 1 0.158727 0.359415 0.736617
2 1 0.105378 0.44663 0.758643
3 1 0.0286624 0.212553 0.674826
4 1 0.828967 0.49957 0.20502
5 1 0.930361 0.645782 0.524065
6 1 0.858861 0.813976 0.642653
7 1 0.179045 0.30129 0.849419
8 1 0.138319 0.72047 0.95444
9 1 0.284175 0.829866 0.155223
10 1 0.152394 0.0075027 0.69455
11 1 0.250119 0.196986 0.624674
12 1 0.487723 0.247609 0.572108
13 1 0.395786 0.887242 0.154359
14 1 0.375458 0.695184 0.0884427
15 1 0.0665828 0.167825 0.76133
16 1 0.971255 0.885473 0.141914
17 1 0.151267 0.0681823 0.77923
18 1 0.186772 0.408152 0.648937
19 1 0.896178 0.0591944 0.879475
20 1 0.331804 0.658392 0.630915
21 1 0.774178 0.567796 0.00525163
22 1 0.0937066 0.921793 0.573891
ITEM: TIMESTEP
3
ITEM: NUMBER OF ATOMS
22
ITEM: BOX BOUNDS ff ff ff
-5.0000000000000000e+00 5.0000000000000000e+00
-5.0000000000000000e+00 5.0000000000000000e+00
-5.0000000000000000e+00 5.0000000000000000e+00
ITEM: ATOMS id type xs ys zs
1 1 0.159891 0.352236 0.741067
2 1 0.10345 0.450276 0.759095
3 1 0.0270491 0.214677 0.670838
4 1 0.828955 0.499587 0.204973
5 1 0.930344 0.645822 0.524092
6 1 0.858878 0.813936 0.642625
7 1 0.178723 0.301853 0.848175
8 1 0.138319 0.720467 0.954437
9 1 0.285392 0.830261 0.15513
10 1 0.152405 0.00459527 0.690294
11 1 0.249994 0.197021 0.62479
12 1 0.487699 0.247606 0.572114
13 1 0.394676 0.886599 0.154341
14 1 0.375351 0.695432 0.088554
15 1 0.0692422 0.164945 0.765508
16 1 0.971254 0.885471 0.141914
17 1 0.15049 0.0721805 0.78331
18 1 0.187735 0.41077 0.645141
19 1 0.896178 0.0591944 0.879475
20 1 0.331796 0.658384 0.630917
21 1 0.774191 0.567781 0.00529984
22 1 0.0937079 0.921791 0.573892
ITEM: TIMESTEP
4
ITEM: NUMBER OF ATOMS
22
ITEM: BOX BOUNDS ff ff ff
-5.0000000000000000e+00 5.0000000000000000e+00
-5.0000000000000000e+00 5.0000000000000000e+00
-5.0000000000000000e+00 5.0000000000000000e+00
ITEM: ATOMS id type xs ys zs
1 1 0.160439 0.35042 0.744368
2 1 0.105533 0.448537 0.75712
3 1 0.0279862 0.214528 0.671664
4 1 0.8289 0.499663 0.204774
5 1 0.930267 0.645995 0.524208
6 1 0.858951 0.813761 0.642501
7 1 0.177389 0.303951 0.842995
8 1 0.13832 0.720453 0.954422
9 1 0.290604 0.831935 0.154726
10 1 0.152212 0.00557846 0.690859
11 1 0.249461 0.197186 0.625297
12 1 0.487594 0.247593 0.572141
13 1 0.389933 0.883829 0.154259
14 1 0.374885 0.696525 0.089044
15 1 0.0731725 0.161603 0.765615
16 1 0.971251 0.885465 0.141915
17 1 0.147043 0.0761787 0.781903
18 1 0.185878 0.410646 0.64837
19 1 0.896177 0.0591947 0.879474
20 1 0.331763 0.658345 0.630927
21 1 0.774247 0.567715 0.00550741
22 1 0.0937137 0.921783 0.573893
ITEM: TIMESTEP
5
ITEM: NUMBER OF ATOMS
22
ITEM: BOX BOUNDS ff ff ff
-5.0000000000000000e+00 5.0000000000000000e+00
-5.0000000000000000e+00 5.0000000000000000e+00
-5.0000000000000000e+00 5.0000000000000000e+00
ITEM: ATOMS id type xs ys zs
1 1 0.160285 0.351982 0.741673
2 1 0.107799 0.446542 0.75504
3 1 0.0295787 0.21349 0.673976
4 1 0.828853 0.499727 0.204603
5 1 0.930202 0.646142 0.524307
6 1 0.859014 0.813612 0.642395
7 1 0.176978 0.303736 0.842854
8 1 0.138322 0.720441 0.954409
9 1 0.292 0.831727 0.154379
10 1 0.151958 0.0073705 0.69253
11 1 0.24899 0.197321 0.625749
12 1 0.487506 0.247583 0.572164
13 1 0.388952 0.883016 0.154155
14 1 0.374472 0.697545 0.0894968
15 1 0.0744251 0.161168 0.763793
16 1 0.971248 0.88546 0.141916
17 1 0.145517 0.0771733 0.779815
18 1 0.183694 0.409909 0.652738
19 1 0.896177 0.059195 0.879474
20 1 0.331734 0.658312 0.630935
21 1 0.774294 0.567658 0.00568482
22 1 0.0937186 0.921777 0.573895
ITEM: TIMESTEP
6
ITEM: NUMBER OF ATOMS
22
ITEM: BOX BOUNDS ff ff ff
-5.0000000000000000e+00 5.0000000000000000e+00
-5.0000000000000000e+00 5.0000000000000000e+00
-5.0000000000000000e+00 5.0000000000000000e+00
ITEM: ATOMS id type xs ys zs
1 1 0.160638 0.349836 0.74102
2 1 0.110199 0.445648 0.751922
3 1 0.0316794 0.212276 0.67681
4 1 0.828783 0.499822 0.204349
5 1 0.930105 0.646361 0.524454
6 1 0.859108 0.81339 0.642238
7 1 0.176243 0.303776 0.841898
8 1 0.138324 0.720423 0.95439
9 1 0.292214 0.830397 0.153856
10 1 0.151614 0.00941953 0.694186
11 1 0.248278 0.197516 0.626431
12 1 0.487378 0.247567 0.572198
13 1 0.389371 0.882779 0.153989
14 1 0.373843 0.699109 0.0901898
15 1 0.0754822 0.161432 0.76144
16 1 0.971244 0.885453 0.141917
17 1 0.144297 0.0780392 0.777782
18 1 0.18096 0.410839 0.656644
19 1 0.896176 0.0591954 0.879474
20 1 0.331692 0.658265 0.630948
21 1 0.774364 0.567574 0.00594828
22 1 0.0937258 0.921767 0.573897
ITEM: TIMESTEP
7
ITEM: NUMBER OF ATOMS
22
ITEM: BOX BOUNDS ff ff ff
-5.0000000000000000e+00 5.0000000000000000e+00
-5.0000000000000000e+00 5.0000000000000000e+00
-5.0000000000000000e+00 5.0000000000000000e+00
ITEM: ATOMS id type xs ys zs
1 1 0.160766 0.347582 0.74169
2 1 0.111285 0.44555 0.750285
3 1 0.0323608 0.212118 0.677475
4 1 0.828748 0.499871 0.20422
5 1 0.930056 0.646472 0.524529
6 1 0.859155 0.813277 0.642158
7 1 0.175872 0.303794 0.841417
8 1 0.138325 0.720415 0.954381
9 1 0.292134 0.8296 0.153583
10 1 0.151483 0.00997037 0.69441
11 1 0.247909 0.197614 0.626783
12 1 0.487313 0.247559 0.572215
13 1 0.389781 0.882761 0.153903
14 1 0.373515 0.699923 0.0905508
15 1 0.0760417 0.161551 0.760931
16 1 0.971242 0.885449 0.141918
17 1 0.144005 0.0785357 0.777454
18 1 0.179752 0.412112 0.657672
19 1 0.896176 0.0591956 0.879473
20 1 0.331671 0.658241 0.630954
21 1 0.7744 0.567531 0.00608218
22 1 0.0937295 0.921762 0.573898
ITEM: TIMESTEP
8
ITEM: NUMBER OF ATOMS
22
ITEM: BOX BOUNDS ff ff ff
-5.0000000000000000e+00 5.0000000000000000e+00
-5.0000000000000000e+00 5.0000000000000000e+00
-5.0000000000000000e+00 5.0000000000000000e+00
ITEM: ATOMS id type xs ys zs
1 1 0.160479 0.345037 0.742758
2 1 0.11179 0.445834 0.749275
3 1 0.0311667 0.213875 0.674759
4 1 0.828729 0.499896 0.204152
5 1 0.93003 0.64653 0.524569
6 1 0.85918 0.813218 0.642116
7 1 0.175827 0.303379 0.842127
8 1 0.138325 0.720411 0.954377
9 1 0.291934 0.829015 0.15341
10 1 0.151572 0.00859305 0.692442
11 1 0.247692 0.197659 0.626989
12 1 0.487281 0.247555 0.572223
13 1 0.39019 0.882841 0.153853
14 1 0.373306 0.700427 0.0907756
15 1 0.0764804 0.161522 0.763379
16 1 0.971241 0.885447 0.141918
17 1 0.145136 0.0787572 0.779714
18 1 0.179372 0.414194 0.656664
19 1 0.896175 0.0591957 0.879473
20 1 0.33166 0.658229 0.630958
21 1 0.774419 0.567508 0.00615243
22 1 0.0937313 0.92176 0.573898
ITEM: TIMESTEP
9
ITEM: NUMBER OF ATOMS
22
ITEM: BOX BOUNDS ff ff ff
-5.0000000000000000e+00 5.0000000000000000e+00
-5.0000000000000000e+00 5.0000000000000000e+00
-5.0000000000000000e+00 5.0000000000000000e+00
ITEM: ATOMS id type xs ys zs
1 1 0.159928 0.344235 0.741225
2 1 0.113063 0.445305 0.747618
3 1 0.0309701 0.214707 0.673709
4 1 0.828699 0.499937 0.204043
5 1 0.929989 0.646624 0.524632
6 1 0.85922 0.813123 0.642048
7 1 0.175886 0.302379 0.844081
8 1 0.138326 0.720404 0.954369
9 1 0.292018 0.828274 0.153125
10 1 0.151523 0.00824255 0.691566
11 1 0.247348 0.197734 0.627317
12 1 0.48723 0.247549 0.572237
13 1 0.390454 0.882755 0.153771
14 1 0.37296 0.701254 0.0911444
15 1 0.0755563 0.163361 0.764036
16 1 0.971239 0.885444 0.141919
17 1 0.147059 0.0773685 0.781031
18 1 0.178249 0.415554 0.657509
19 1 0.896175 0.0591958 0.879473
20 1 0.331642 0.658209 0.630964
21 1 0.774449 0.567472 0.00626542
22 1 0.0937343 0.921756 0.573899
ITEM: TIMESTEP
10
ITEM: NUMBER OF ATOMS
22
ITEM: BOX BOUNDS ff ff ff
-5.0000000000000000e+00 5.0000000000000000e+00
-5.0000000000000000e+00 5.0000000000000000e+00
-5.0000000000000000e+00 5.0000000000000000e+00
ITEM: ATOMS id type xs ys zs
1 1 0.159652 0.342008 0.741075
2 1 0.114636 0.444661 0.745654
3 1 0.0319608 0.21474 0.674366
4 1 0.828642 0.500016 0.203834
5 1 0.929909 0.646804 0.524754
6 1 0.859297 0.812941 0.641919
7 1 0.1754 0.3021 0.843852
8 1 0.138328 0.720391 0.954355
9 1 0.292926 0.827177 0.152551
10 1 0.151288 0.00935596 0.692161
11 1 0.246692 0.197885 0.627943
12 1 0.487134 0.247538 0.572263
13 1 0.390254 0.882193 0.153607
14 1 0.372255 0.70291 0.0918856
15 1 0.0762629 0.163896 0.763569
16 1 0.971236 0.885439 0.141919
17 1 0.147065 0.0774999 0.780356
18 1 0.176751 0.416811 0.659087
19 1 0.896175 0.0591961 0.879473
20 1 0.331608 0.658172 0.630975
21 1 0.774507 0.567403 0.00648155
22 1 0.0937399 0.921748 0.573901
ITEM: TIMESTEP
11
ITEM: NUMBER OF ATOMS
22
ITEM: BOX BOUNDS ff ff ff
-5.0000000000000000e+00 5.0000000000000000e+00
-5.0000000000000000e+00 5.0000000000000000e+00
-5.0000000000000000e+00 5.0000000000000000e+00
ITEM: ATOMS id type xs ys zs
1 1 0.15845 0.336788 0.738803
2 1 0.115507 0.443712 0.745733
3 1 0.0348393 0.215422 0.675599
4 1 0.828451 0.500275 0.20314
5 1 0.929645 0.647402 0.525159
6 1 0.859552 0.812335 0.64149
7 1 0.173852 0.301005 0.843495
8 1 0.138334 0.720351 0.95431
9 1 0.295205 0.822809 0.150523
10 1 0.150566 0.011876 0.69256
11 1 0.244473 0.198386 0.630058
12 1 0.48682 0.2475 0.572348
13 1 0.390466 0.880775 0.153054
14 1 0.369773 0.708689 0.0944765
15 1 0.0798899 0.16426 0.76317
16 1 0.971226 0.88542 0.141922
17 1 0.146263 0.0800816 0.779507
18 1 0.176281 0.417659 0.659044
19 1 0.896173 0.0591971 0.879472
20 1 0.331494 0.658047 0.631011
21 1 0.7747 0.567172 0.0072007
22 1 0.0937586 0.921723 0.573906
ITEM: TIMESTEP
12
ITEM: NUMBER OF ATOMS
22
ITEM: BOX BOUNDS ff ff ff
-5.0000000000000000e+00 5.0000000000000000e+00
-5.0000000000000000e+00 5.0000000000000000e+00
-5.0000000000000000e+00 5.0000000000000000e+00
ITEM: ATOMS id type xs ys zs
1 1 0.155951 0.331494 0.733873
2 1 0.115697 0.441039 0.748632
3 1 0.0391855 0.217076 0.676789
4 1 0.828141 0.500698 0.20201
5 1 0.929216 0.648376 0.525817
6 1 0.859967 0.81135 0.640791
7 1 0.171301 0.299269 0.842718
8 1 0.138345 0.720285 0.954236
9 1 0.298834 0.814939 0.146963
10 1 0.149435 0.0151437 0.692099
11 1 0.24079 0.199217 0.633559
12 1 0.486315 0.247439 0.572485
13 1 0.391215 0.878634 0.152136
14 1 0.365412 0.718689 0.0989719
15 1 0.083591 0.167839 0.762696
16 1 0.971209 0.885389 0.141927
17 1 0.147605 0.0817721 0.7799
18 1 0.177229 0.416711 0.657555
19 1 0.89617 0.0591987 0.87947
20 1 0.331309 0.657847 0.63107
21 1 0.775014 0.566796 0.00837003
22 1 0.0937887 0.921683 0.573915
ITEM: TIMESTEP
13
ITEM: NUMBER OF ATOMS
22
ITEM: BOX BOUNDS ff ff ff
-5.0000000000000000e+00 5.0000000000000000e+00
-5.0000000000000000e+00 5.0000000000000000e+00
-5.0000000000000000e+00 5.0000000000000000e+00
ITEM: ATOMS id type xs ys zs
1 1 0.154858 0.330888 0.732302
2 1 0.116263 0.438929 0.749415
3 1 0.0401972 0.218542 0.675903
4 1 0.828026 0.500854 0.201593
5 1 0.929058 0.648735 0.52606
6 1 0.86012 0.810986 0.640533
7 1 0.170213 0.298863 0.841531
8 1 0.138348 0.720262 0.95421
9 1 0.300722 0.811443 0.145326
10 1 0.14903 0.0159466 0.691365
11 1 0.239347 0.199553 0.634914
12 1 0.486136 0.247418 0.572534
13 1 0.391378 0.87766 0.151753
14 1 0.363366 0.723154 0.100998
15 1 0.084815 0.169722 0.763632
16 1 0.971203 0.885378 0.141929
17 1 0.149009 0.0816077 0.78085
18 1 0.177289 0.415643 0.657853
19 1 0.896169 0.0591992 0.879469
20 1 0.331242 0.657774 0.631091
21 1 0.77513 0.566658 0.00880145
22 1 0.0937995 0.921668 0.573918
ITEM: TIMESTEP
14
ITEM: NUMBER OF ATOMS
22
ITEM: BOX BOUNDS ff ff ff
-5.0000000000000000e+00 5.0000000000000000e+00
-5.0000000000000000e+00 5.0000000000000000e+00
-5.0000000000000000e+00 5.0000000000000000e+00
ITEM: ATOMS id type xs ys zs
1 1 0.154218 0.332267 0.732671
2 1 0.117206 0.436431 0.74925
3 1 0.0402351 0.219945 0.674472
4 1 0.827983 0.500911 0.201438
5 1 0.928999 0.648868 0.526152
6 1 0.860177 0.810851 0.640438
7 1 0.169465 0.299185 0.839148
8 1 0.138349 0.720254 0.954202
9 1 0.302114 0.809743 0.144437
10 1 0.148892 0.0159429 0.690629
11 1 0.238609 0.199754 0.635565
12 1 0.486085 0.247413 0.572549
13 1 0.391106 0.87675 0.151475
14 1 0.362246 0.725763 0.102166
15 1 0.0856084 0.170715 0.765058
16 1 0.971201 0.885374 0.141929
17 1 0.149992 0.0812766 0.781774
18 1 0.176865 0.414218 0.659181
19 1 0.896169 0.0591994 0.879469
20 1 0.331221 0.657751 0.631098
21 1 0.775174 0.566606 0.0089612
22 1 0.093803 0.921664 0.573919
ITEM: TIMESTEP
15
ITEM: NUMBER OF ATOMS
22
ITEM: BOX BOUNDS ff ff ff
-5.0000000000000000e+00 5.0000000000000000e+00
-5.0000000000000000e+00 5.0000000000000000e+00
-5.0000000000000000e+00 5.0000000000000000e+00
ITEM: ATOMS id type xs ys zs
1 1 0.153664 0.331165 0.732532
2 1 0.116661 0.435558 0.751028
3 1 0.0413294 0.220751 0.674567
4 1 0.827924 0.50099 0.201223
5 1 0.928918 0.649053 0.526278
6 1 0.860256 0.810664 0.640305
7 1 0.168555 0.299268 0.837074
8 1 0.138351 0.720245 0.95419
9 1 0.301959 0.809184 0.144266
10 1 0.148716 0.0165133 0.690423
11 1 0.237584 0.200032 0.636465
12 1 0.486017 0.247407 0.572569
13 1 0.39123 0.875775 0.151098
14 1 0.36228 0.727296 0.102718
15 1 0.0863034 0.172456 0.765149
16 1 0.971198 0.885369 0.14193
17 1 0.150727 0.0810656 0.782069
18 1 0.177643 0.41298 0.658419
19 1 0.896168 0.0591997 0.879469
20 1 0.331193 0.65772 0.631106
21 1 0.775234 0.566534 0.00918238
22 1 0.0938077 0.921657 0.57392
ITEM: TIMESTEP
16
ITEM: NUMBER OF ATOMS
22
ITEM: BOX BOUNDS ff ff ff
-5.0000000000000000e+00 5.0000000000000000e+00
-5.0000000000000000e+00 5.0000000000000000e+00
-5.0000000000000000e+00 5.0000000000000000e+00
ITEM: ATOMS id type xs ys zs
1 1 0.148684 0.324643 0.722532
2 1 0.116623 0.428547 0.757722
3 1 0.0497169 0.226106 0.676244
4 1 0.827508 0.501547 0.199705
5 1 0.928348 0.650359 0.527169
6 1 0.860811 0.809347 0.639371
7 1 0.163109 0.297177 0.830932
8 1 0.138363 0.720176 0.954113
9 1 0.294709 0.812245 0.146802
10 1 0.147527 0.0210632 0.689752
11 1 0.230211 0.202063 0.642913
12 1 0.485542 0.247364 0.572711
13 1 0.392654 0.868932 0.148338
14 1 0.36812 0.731065 0.10296
15 1 0.0944744 0.180949 0.765888
16 1 0.971179 0.885335 0.141936
17 1 0.152435 0.0838388 0.782417
18 1 0.179043 0.405776 0.659169
19 1 0.896165 0.0592014 0.879467
20 1 0.330998 0.657507 0.631168
21 1 0.775656 0.566028 0.010742
22 1 0.0938409 0.921613 0.573931
ITEM: TIMESTEP
17
ITEM: NUMBER OF ATOMS
22
ITEM: BOX BOUNDS ff ff ff
-5.0000000000000000e+00 5.0000000000000000e+00
-5.0000000000000000e+00 5.0000000000000000e+00
-5.0000000000000000e+00 5.0000000000000000e+00
ITEM: ATOMS id type xs ys zs
1 1 0.141971 0.314643 0.714797
2 1 0.117817 0.420013 0.763052
3 1 0.0585582 0.232554 0.677288
4 1 0.827069 0.502134 0.198109
5 1 0.927747 0.651732 0.528107
6 1 0.861396 0.80796 0.638389
7 1 0.157072 0.294949 0.823709
8 1 0.138375 0.720105 0.954032
9 1 0.288814 0.814428 0.148755
10 1 0.146308 0.0258708 0.689084
11 1 0.222182 0.204347 0.649882
12 1 0.485051 0.247321 0.572858
13 1 0.393569 0.86108 0.145311
14 1 0.373116 0.736722 0.104053
15 1 0.104295 0.189276 0.767721
16 1 0.971158 0.885298 0.141941
17 1 0.153747 0.0875311 0.782575
18 1 0.180539 0.401367 0.659298
19 1 0.896162 0.0592032 0.879465
20 1 0.330796 0.657286 0.631231
21 1 0.776101 0.565496 0.0123825
22 1 0.0938756 0.921566 0.573942
ITEM: TIMESTEP
18
ITEM: NUMBER OF ATOMS
22
ITEM: BOX BOUNDS ff ff ff
-5.0000000000000000e+00 5.0000000000000000e+00
-5.0000000000000000e+00 5.0000000000000000e+00
-5.0000000000000000e+00 5.0000000000000000e+00
ITEM: ATOMS id type xs ys zs
1 1 0.134911 0.304643 0.711882
2 1 0.12133 0.41041 0.762479
3 1 0.0659527 0.239023 0.677549
4 1 0.826783 0.502514 0.197068
5 1 0.927357 0.652627 0.528719
6 1 0.861777 0.807057 0.637749
7 1 0.152045 0.292657 0.817413
8 1 0.138383 0.720062 0.953982
9 1 0.289646 0.814032 0.148455
10 1 0.145647 0.0291296 0.688862
11 1 0.21541 0.206652 0.655436
12 1 0.484757 0.247297 0.572948
13 1 0.392072 0.853492 0.142847
14 1 0.373791 0.744699 0.106829
15 1 0.113427 0.196112 0.770218
16 1 0.971146 0.885276 0.141945
17 1 0.153886 0.0912689 0.78211
18 1 0.180276 0.40089 0.661357
19 1 0.89616 0.0592044 0.879463
20 1 0.330674 0.657153 0.631269
21 1 0.776391 0.565149 0.0134505
22 1 0.0938972 0.921537 0.573948
ITEM: TIMESTEP
19
ITEM: NUMBER OF ATOMS
22
ITEM: BOX BOUNDS ff ff ff
-5.0000000000000000e+00 5.0000000000000000e+00
-5.0000000000000000e+00 5.0000000000000000e+00
-5.0000000000000000e+00 5.0000000000000000e+00
ITEM: ATOMS id type xs ys zs
1 1 0.138777 0.308308 0.712694
2 1 0.121787 0.409252 0.761996
3 1 0.0626593 0.235463 0.675856
4 1 0.826771 0.502531 0.197021
5 1 0.92734 0.652667 0.528747
6 1 0.861794 0.807017 0.63772
7 1 0.151973 0.292738 0.818006
8 1 0.138383 0.720061 0.953981
9 1 0.289551 0.813569 0.148306
10 1 0.14565 0.0293003 0.688901
11 1 0.214571 0.207018 0.656033
12 1 0.48475 0.247297 0.57295
13 1 0.39245 0.853251 0.142686
14 1 0.373509 0.745402 0.10714
15 1 0.113862 0.196845 0.769716
16 1 0.971145 0.885275 0.141945
17 1 0.153853 0.0915355 0.781988
18 1 0.179764 0.400332 0.662117
19 1 0.89616 0.0592044 0.879463
20 1 0.330671 0.657149 0.63127
21 1 0.776404 0.565133 0.0134979
22 1 0.0938979 0.921536 0.573948
ITEM: TIMESTEP
20
ITEM: NUMBER OF ATOMS
22
ITEM: BOX BOUNDS ff ff ff
-5.0000000000000000e+00 5.0000000000000000e+00
-5.0000000000000000e+00 5.0000000000000000e+00
-5.0000000000000000e+00 5.0000000000000000e+00
ITEM: ATOMS id type xs ys zs
1 1 0.140551 0.307314 0.707449
2 1 0.123818 0.404669 0.760696
3 1 0.0634519 0.233427 0.676404
4 1 0.826701 0.502622 0.196769
5 1 0.927246 0.652883 0.528897
6 1 0.861886 0.806799 0.637566
7 1 0.151539 0.29309 0.821879
8 1 0.138384 0.720054 0.953973
9 1 0.289365 0.811525 0.147599
10 1 0.145659 0.0301916 0.689048
11 1 0.210099 0.209013 0.659323
12 1 0.484712 0.247297 0.572964
13 1 0.393955 0.852091 0.141971
14 1 0.37219 0.748605 0.108564
15 1 0.11601 0.200677 0.766397
16 1 0.971143 0.88527 0.141946
17 1 0.153602 0.0932135 0.781351
18 1 0.178218 0.399229 0.664742
19 1 0.89616 0.0592046 0.879463
20 1 0.330653 0.657129 0.631276
21 1 0.776474 0.565049 0.013755
22 1 0.0939018 0.921531 0.57395
ITEM: TIMESTEP
21
ITEM: NUMBER OF ATOMS
22
ITEM: BOX BOUNDS ff ff ff
-5.0000000000000000e+00 5.0000000000000000e+00
-5.0000000000000000e+00 5.0000000000000000e+00
-5.0000000000000000e+00 5.0000000000000000e+00
ITEM: ATOMS id type xs ys zs
1 1 0.142576 0.299864 0.705038
2 1 0.12584 0.397608 0.761259
3 1 0.0643591 0.231471 0.675322
4 1 0.826583 0.502777 0.196337
5 1 0.927085 0.653255 0.529153
6 1 0.862043 0.806425 0.637301
7 1 0.150218 0.294745 0.822607
8 1 0.138387 0.720043 0.953959
9 1 0.288676 0.809742 0.147087
10 1 0.145664 0.0316472 0.689184
11 1 0.201718 0.212818 0.665431
12 1 0.484649 0.247297 0.572986
13 1 0.395702 0.851616 0.14146
14 1 0.371135 0.75086 0.109591
15 1 0.121437 0.20564 0.76276
16 1 0.971139 0.885263 0.141947
17 1 0.153001 0.0967651 0.780241
18 1 0.178222 0.40032 0.665422
19 1 0.896159 0.059205 0.879463
20 1 0.330622 0.657096 0.631286
21 1 0.776593 0.564905 0.014195
22 1 0.0939086 0.921522 0.573951
ITEM: TIMESTEP
22
ITEM: NUMBER OF ATOMS
22
ITEM: BOX BOUNDS ff ff ff
-5.0000000000000000e+00 5.0000000000000000e+00
-5.0000000000000000e+00 5.0000000000000000e+00
-5.0000000000000000e+00 5.0000000000000000e+00
ITEM: ATOMS id type xs ys zs
1 1 0.143709 0.299064 0.705296
2 1 0.126142 0.395299 0.762026
3 1 0.0639073 0.230729 0.674104
4 1 0.826546 0.502825 0.196202
5 1 0.927035 0.65337 0.529233
6 1 0.862093 0.806309 0.637219
7 1 0.149825 0.295674 0.821897
8 1 0.138388 0.720039 0.953955
9 1 0.288139 0.809954 0.147269
10 1 0.145665 0.0321014 0.689222
11 1 0.199034 0.213647 0.667394
12 1 0.48463 0.247297 0.572993
13 1 0.395963 0.852104 0.141587
14 1 0.371414 0.75016 0.109283
15 1 0.123564 0.206135 0.762269
16 1 0.971138 0.885261 0.141947
17 1 0.152807 0.0979864 0.779849
18 1 0.178409 0.40026 0.6652
19 1 0.896159 0.0592051 0.879463
20 1 0.330613 0.657086 0.631289
21 1 0.77663 0.56486 0.0143317
22 1 0.0939106 0.921519 0.573952
ITEM: TIMESTEP
23
ITEM: NUMBER OF ATOMS
22
ITEM: BOX BOUNDS ff ff ff
-5.0000000000000000e+00 5.0000000000000000e+00
-5.0000000000000000e+00 5.0000000000000000e+00
-5.0000000000000000e+00 5.0000000000000000e+00
ITEM: ATOMS id type xs ys zs
1 1 0.143892 0.301528 0.706569
2 1 0.126028 0.394057 0.762932
3 1 0.0637555 0.230363 0.673188
4 1 0.826524 0.502854 0.196123
5 1 0.927006 0.653438 0.52928
6 1 0.862122 0.80624 0.63717
7 1 0.149694 0.296718 0.820501
8 1 0.138388 0.720038 0.953953
9 1 0.288008 0.810759 0.147588
10 1 0.145666 0.0323903 0.68926
11 1 0.198026 0.212562 0.668144
12 1 0.484621 0.247297 0.572996
13 1 0.39551 0.852638 0.14187
14 1 0.371998 0.748819 0.108682
15 1 0.124712 0.205028 0.762227
16 1 0.971137 0.88526 0.141947
17 1 0.152755 0.0986392 0.779555
18 1 0.178547 0.399618 0.664877
19 1 0.896159 0.0592051 0.879463
20 1 0.330608 0.65708 0.631291
21 1 0.776653 0.564833 0.0144128
22 1 0.0939118 0.921518 0.573952
ITEM: TIMESTEP
24
ITEM: NUMBER OF ATOMS
22
ITEM: BOX BOUNDS ff ff ff
-5.0000000000000000e+00 5.0000000000000000e+00
-5.0000000000000000e+00 5.0000000000000000e+00
-5.0000000000000000e+00 5.0000000000000000e+00
ITEM: ATOMS id type xs ys zs
1 1 0.143842 0.301127 0.70697
2 1 0.125885 0.393808 0.763918
3 1 0.0646028 0.230371 0.672946
4 1 0.826499 0.502885 0.196034
5 1 0.926973 0.653515 0.529333
6 1 0.862154 0.806164 0.637116
7 1 0.14957 0.297421 0.819339
8 1 0.138389 0.720036 0.953951
9 1 0.288398 0.811215 0.147678
10 1 0.145667 0.0327136 0.689291
11 1 0.196423 0.212131 0.66928
12 1 0.484611 0.247298 0.573
13 1 0.394914 0.852661 0.141995
14 1 0.372204 0.748341 0.108468
15 1 0.125624 0.205139 0.761467
16 1 0.971136 0.885258 0.141947
17 1 0.152836 0.098887 0.779307
18 1 0.178642 0.399316 0.66473
19 1 0.896158 0.0592052 0.879462
20 1 0.330602 0.657074 0.631292
21 1 0.776677 0.564803 0.014503
22 1 0.0939131 0.921516 0.573953
ITEM: TIMESTEP
25
ITEM: NUMBER OF ATOMS
22
ITEM: BOX BOUNDS ff ff ff
-5.0000000000000000e+00 5.0000000000000000e+00
-5.0000000000000000e+00 5.0000000000000000e+00
-5.0000000000000000e+00 5.0000000000000000e+00
ITEM: ATOMS id type xs ys zs
1 1 0.143748 0.301475 0.70699
2 1 0.125859 0.393821 0.764455
3 1 0.0656371 0.230287 0.672504
4 1 0.826467 0.502927 0.195917
5 1 0.926929 0.653615 0.529403
6 1 0.862197 0.806063 0.637044
7 1 0.149519 0.297854 0.818553
8 1 0.138389 0.720033 0.953947
9 1 0.288922 0.811547 0.147698
10 1 0.145662 0.0330915 0.689248
11 1 0.194609 0.211279 0.670392
12 1 0.484598 0.247299 0.573005
13 1 0.394304 0.852539 0.14207
14 1 0.37229 0.74813 0.108374
15 1 0.126574 0.205164 0.761008
16 1 0.971135 0.885257 0.141948
17 1 0.152999 0.0991205 0.779072
18 1 0.178501 0.398834 0.66502
19 1 0.896158 0.0592053 0.879462
20 1 0.330595 0.657066 0.631295
21 1 0.77671 0.564764 0.0146223
22 1 0.0939148 0.921514 0.573953
ITEM: TIMESTEP
26
ITEM: NUMBER OF ATOMS
22
ITEM: BOX BOUNDS ff ff ff
-5.0000000000000000e+00 5.0000000000000000e+00
-5.0000000000000000e+00 5.0000000000000000e+00
-5.0000000000000000e+00 5.0000000000000000e+00
ITEM: ATOMS id type xs ys zs
1 1 0.143465 0.302183 0.706733
2 1 0.125705 0.39448 0.76522
3 1 0.0678391 0.229818 0.671364
4 1 0.826395 0.503021 0.195654
5 1 0.926832 0.653842 0.529559
6 1 0.862293 0.805835 0.636883
7 1 0.149597 0.298211 0.817819
8 1 0.138391 0.720027 0.95394
9 1 0.289386 0.812 0.147773
10 1 0.145643 0.0338481 0.688985
11 1 0.191351 0.209224 0.671671
12 1 0.484569 0.2473 0.573016
13 1 0.393665 0.852551 0.1422
14 1 0.372468 0.747664 0.108171
15 1 0.127718 0.205333 0.761217
16 1 0.971133 0.885252 0.141948
17 1 0.153473 0.099465 0.778718
18 1 0.178359 0.398392 0.665505
19 1 0.896158 0.0592055 0.879462
20 1 0.330578 0.657048 0.6313
21 1 0.776782 0.564676 0.0148898
22 1 0.0939186 0.921509 0.573954
ITEM: TIMESTEP
27
ITEM: NUMBER OF ATOMS
22
ITEM: BOX BOUNDS ff ff ff
-5.0000000000000000e+00 5.0000000000000000e+00
-5.0000000000000000e+00 5.0000000000000000e+00
-5.0000000000000000e+00 5.0000000000000000e+00
ITEM: ATOMS id type xs ys zs
1 1 0.143294 0.302121 0.707014
2 1 0.125598 0.395263 0.765696
3 1 0.0711093 0.228283 0.669847
4 1 0.826286 0.503163 0.195256
5 1 0.926684 0.654183 0.529796
6 1 0.862438 0.805492 0.63664
7 1 0.149944 0.298918 0.817666
8 1 0.138393 0.720019 0.95393
9 1 0.289375 0.812048 0.147795
10 1 0.145601 0.0348831 0.688341
11 1 0.188106 0.206743 0.670771
12 1 0.484528 0.247302 0.573032
13 1 0.393643 0.852596 0.142222
14 1 0.372503 0.747568 0.108131
15 1 0.126688 0.205955 0.763659
16 1 0.97113 0.885246 0.141949
17 1 0.154342 0.0997698 0.778375
18 1 0.178528 0.399057 0.665844
19 1 0.896157 0.0592058 0.879462
20 1 0.330554 0.657022 0.631308
21 1 0.776892 0.564543 0.0152939
22 1 0.0939242 0.921501 0.573956
ITEM: TIMESTEP
28
ITEM: NUMBER OF ATOMS
22
ITEM: BOX BOUNDS ff ff ff
-5.0000000000000000e+00 5.0000000000000000e+00
-5.0000000000000000e+00 5.0000000000000000e+00
-5.0000000000000000e+00 5.0000000000000000e+00
ITEM: ATOMS id type xs ys zs
1 1 0.143714 0.302247 0.707143
2 1 0.125644 0.395351 0.765584
3 1 0.0722563 0.227207 0.66927
4 1 0.826237 0.503226 0.19508
5 1 0.926619 0.654334 0.529901
6 1 0.862502 0.80534 0.636532
7 1 0.150238 0.299593 0.818109
8 1 0.138394 0.720015 0.953925
9 1 0.289344 0.811989 0.14778
10 1 0.145578 0.0353332 0.687997
11 1 0.186394 0.20602 0.670885
12 1 0.48451 0.247303 0.573039
13 1 0.393705 0.852575 0.142202
14 1 0.372474 0.747647 0.108166
15 1 0.126219 0.205972 0.763879
16 1 0.971128 0.885244 0.14195
17 1 0.154704 0.100113 0.778187
18 1 0.17849 0.399175 0.666151
19 1 0.896157 0.0592059 0.879462
20 1 0.330544 0.657011 0.631311
21 1 0.776941 0.564484 0.0154724
22 1 0.0939266 0.921498 0.573957
ITEM: TIMESTEP
29
ITEM: NUMBER OF ATOMS
22
ITEM: BOX BOUNDS ff ff ff
-5.0000000000000000e+00 5.0000000000000000e+00
-5.0000000000000000e+00 5.0000000000000000e+00
-5.0000000000000000e+00 5.0000000000000000e+00
ITEM: ATOMS id type xs ys zs
1 1 0.144076 0.301858 0.707471
2 1 0.125611 0.395451 0.765432
3 1 0.0730487 0.226188 0.668615
4 1 0.826181 0.503299 0.194874
5 1 0.926543 0.654511 0.530023
6 1 0.862577 0.805162 0.636406
7 1 0.150534 0.299906 0.818439
8 1 0.138395 0.720011 0.95392
9 1 0.289308 0.811926 0.147765
10 1 0.145552 0.035926 0.687616
11 1 0.1851 0.205169 0.670958
12 1 0.484491 0.247304 0.573047
13 1 0.393773 0.852554 0.142182
14 1 0.372443 0.74773 0.108203
15 1 0.125672 0.206647 0.764472
16 1 0.971126 0.885241 0.14195
17 1 0.155141 0.100521 0.777851
18 1 0.178532 0.399367 0.666344
19 1 0.896157 0.0592061 0.879462
20 1 0.330532 0.656998 0.631315
21 1 0.776998 0.564415 0.0156815
22 1 0.0939294 0.921495 0.573958
ITEM: TIMESTEP
30
ITEM: NUMBER OF ATOMS
22
ITEM: BOX BOUNDS ff ff ff
-5.0000000000000000e+00 5.0000000000000000e+00
-5.0000000000000000e+00 5.0000000000000000e+00
-5.0000000000000000e+00 5.0000000000000000e+00
ITEM: ATOMS id type xs ys zs
1 1 0.144652 0.30226 0.70748
2 1 0.125431 0.395171 0.765257
3 1 0.0741792 0.224278 0.667291
4 1 0.826017 0.503512 0.194278
5 1 0.926322 0.655024 0.530379
6 1 0.862795 0.804646 0.636041
7 1 0.151488 0.301488 0.81964
8 1 0.138398 0.719998 0.953905
9 1 0.289264 0.811915 0.147772
10 1 0.145468 0.0376782 0.686464
11 1 0.183454 0.201835 0.671274
12 1 0.484436 0.247307 0.573068
13 1 0.393815 0.852576 0.142184
14 1 0.372449 0.747716 0.108199
15 1 0.123952 0.206549 0.766249
16 1 0.971122 0.885232 0.141951
17 1 0.156181 0.102732 0.776645
18 1 0.178542 0.399099 0.666872
19 1 0.896156 0.0592065 0.879461
20 1 0.330498 0.65696 0.631326
21 1 0.777163 0.564215 0.0162871
22 1 0.0939373 0.921484 0.57396
ITEM: TIMESTEP
31
ITEM: NUMBER OF ATOMS
22
ITEM: BOX BOUNDS ff ff ff
-5.0000000000000000e+00 5.0000000000000000e+00
-5.0000000000000000e+00 5.0000000000000000e+00
-5.0000000000000000e+00 5.0000000000000000e+00
ITEM: ATOMS id type xs ys zs
1 1 0.145547 0.299739 0.707904
2 1 0.124695 0.395137 0.765108
3 1 0.0766718 0.220537 0.665087
4 1 0.825625 0.504019 0.192851
5 1 0.925793 0.656251 0.53123
6 1 0.863316 0.803414 0.635168
7 1 0.153554 0.303975 0.821451
8 1 0.138406 0.719969 0.953869
9 1 0.289225 0.811894 0.147777
10 1 0.145297 0.0420819 0.683892
11 1 0.179783 0.194559 0.673385
12 1 0.484306 0.247315 0.573118
13 1 0.39386 0.852589 0.142184
14 1 0.372451 0.747717 0.108203
15 1 0.119964 0.209441 0.769156
16 1 0.97111 0.885211 0.141955
17 1 0.159109 0.106654 0.773521
18 1 0.178923 0.399107 0.667607
19 1 0.896154 0.0592075 0.87946
20 1 0.330416 0.656872 0.631353
21 1 0.777558 0.563737 0.0177352
22 1 0.0939562 0.92146 0.573965
ITEM: TIMESTEP
32
ITEM: NUMBER OF ATOMS
22
ITEM: BOX BOUNDS ff ff ff