ITEM: TIMESTEP
0
ITEM: NUMBER OF ATOMS
6
ITEM: BOX BOUNDS ff ff ff
-5.0000000000000000e+00 5.0000000000000000e+00
-5.0000000000000000e+00 5.0000000000000000e+00
-5.0000000000000000e+00 5.0000000000000000e+00
ITEM: ATOMS id type xs ys zs
1 1 0.300951 0.0902108 0.172557
2 1 0.170323 0.61167 0.344825
3 1 0.470875 0.991576 0.412442
4 1 0.904763 0.356085 0.726211
5 1 0.426158 0.434853 0.567004
6 1 0.630446 0.906037 0.762481
ITEM: TIMESTEP
1
ITEM: NUMBER OF ATOMS
6
ITEM: BOX BOUNDS ff ff ff
-5.0000000000000000e+00 5.0000000000000000e+00
-5.0000000000000000e+00 5.0000000000000000e+00
-5.0000000000000000e+00 5.0000000000000000e+00
ITEM: ATOMS id type xs ys zs
1 1 0.300953 0.0902353 0.172575
2 1 0.170485 0.611594 0.344945
3 1 0.470918 0.991501 0.412584
4 1 0.904734 0.356096 0.726202
5 1 0.42605 0.434954 0.566884
6 1 0.630375 0.906051 0.762328
ITEM: TIMESTEP
2
ITEM: NUMBER OF ATOMS
6
ITEM: BOX BOUNDS ff ff ff
-5.0000000000000000e+00 5.0000000000000000e+00
-5.0000000000000000e+00 5.0000000000000000e+00
-5.0000000000000000e+00 5.0000000000000000e+00
ITEM: ATOMS id type xs ys zs
1 1 0.300955 0.0902599 0.172593
2 1 0.17065 0.611517 0.345067
3 1 0.470962 0.991426 0.412728
4 1 0.904704 0.356108 0.726193
5 1 0.425941 0.435057 0.566763
6 1 0.630304 0.906065 0.762174
ITEM: TIMESTEP
3
ITEM: NUMBER OF ATOMS
6
ITEM: BOX BOUNDS ff ff ff
-5.0000000000000000e+00 5.0000000000000000e+00
-5.0000000000000000e+00 5.0000000000000000e+00
-5.0000000000000000e+00 5.0000000000000000e+00
ITEM: ATOMS id type xs ys zs
1 1 0.300957 0.0902847 0.172612
2 1 0.170816 0.611439 0.34519
3 1 0.471006 0.99135 0.412874
4 1 0.904674 0.356119 0.726184
5 1 0.425831 0.43516 0.566641
6 1 0.630232 0.906079 0.762019
ITEM: TIMESTEP
4
ITEM: NUMBER OF ATOMS
6
ITEM: BOX BOUNDS ff ff ff
-5.0000000000000000e+00 5.0000000000000000e+00
-5.0000000000000000e+00 5.0000000000000000e+00
-5.0000000000000000e+00 5.0000000000000000e+00
ITEM: ATOMS id type xs ys zs
1 1 0.300959 0.0903094 0.17263
2 1 0.170982 0.61136 0.345314
3 1 0.471051 0.991274 0.41302
4 1 0.904645 0.35613 0.726175
5 1 0.42572 0.435265 0.566518
6 1 0.630159 0.906093 0.761863
ITEM: TIMESTEP
5
ITEM: NUMBER OF ATOMS
6
ITEM: BOX BOUNDS ff ff ff
-5.0000000000000000e+00 5.0000000000000000e+00
-5.0000000000000000e+00 5.0000000000000000e+00
-5.0000000000000000e+00 5.0000000000000000e+00
ITEM: ATOMS id type xs ys zs
1 1 0.30096 0.0903342 0.172648
2 1 0.17115 0.61128 0.345438
3 1 0.471096 0.991198 0.413167
4 1 0.904615 0.356141 0.726166
5 1 0.425608 0.43537 0.566394
6 1 0.630086 0.906108 0.761706
ITEM: TIMESTEP
6
ITEM: NUMBER OF ATOMS
6
ITEM: BOX BOUNDS ff ff ff
-5.0000000000000000e+00 5.0000000000000000e+00
-5.0000000000000000e+00 5.0000000000000000e+00
-5.0000000000000000e+00 5.0000000000000000e+00
ITEM: ATOMS id type xs ys zs
1 1 0.300962 0.090359 0.172666
2 1 0.171319 0.6112 0.345564
3 1 0.471142 0.991122 0.413314
4 1 0.904585 0.356153 0.726157
5 1 0.425494 0.435476 0.56627
6 1 0.630013 0.906123 0.761548
ITEM: TIMESTEP
7
ITEM: NUMBER OF ATOMS
6
ITEM: BOX BOUNDS ff ff ff
-5.0000000000000000e+00 5.0000000000000000e+00
-5.0000000000000000e+00 5.0000000000000000e+00
-5.0000000000000000e+00 5.0000000000000000e+00
ITEM: ATOMS id type xs ys zs
1 1 0.300964 0.0903839 0.172684
2 1 0.171489 0.611119 0.34569
3 1 0.471188 0.991045 0.413463
4 1 0.904556 0.356164 0.726148
5 1 0.42538 0.435583 0.566144
6 1 0.629939 0.906138 0.761389
ITEM: TIMESTEP
8
ITEM: NUMBER OF ATOMS
6
ITEM: BOX BOUNDS ff ff ff
-5.0000000000000000e+00 5.0000000000000000e+00
-5.0000000000000000e+00 5.0000000000000000e+00
-5.0000000000000000e+00 5.0000000000000000e+00
ITEM: ATOMS id type xs ys zs
1 1 0.300966 0.0904088 0.172703
2 1 0.171661 0.611037 0.345818
3 1 0.471234 0.990968 0.413613
4 1 0.904526 0.356175 0.726139
5 1 0.425264 0.43569 0.566017
6 1 0.629865 0.906153 0.761229
ITEM: TIMESTEP
9
ITEM: NUMBER OF ATOMS
6
ITEM: BOX BOUNDS ff ff ff
-5.0000000000000000e+00 5.0000000000000000e+00
-5.0000000000000000e+00 5.0000000000000000e+00
-5.0000000000000000e+00 5.0000000000000000e+00
ITEM: ATOMS id type xs ys zs
1 1 0.300968 0.0904337 0.172721
2 1 0.171833 0.610955 0.345947
3 1 0.471281 0.99089 0.413764
4 1 0.904497 0.356186 0.72613
5 1 0.425147 0.435799 0.565889
6 1 0.62979 0.906168 0.761068
ITEM: TIMESTEP
10
ITEM: NUMBER OF ATOMS
6
ITEM: BOX BOUNDS ff ff ff
-5.0000000000000000e+00 5.0000000000000000e+00
-5.0000000000000000e+00 5.0000000000000000e+00
-5.0000000000000000e+00 5.0000000000000000e+00
ITEM: ATOMS id type xs ys zs
1 1 0.30097 0.0904586 0.172739
2 1 0.172007 0.610872 0.346076
3 1 0.471328 0.990813 0.413915
4 1 0.904468 0.356197 0.726121
5 1 0.425029 0.435908 0.56576
6 1 0.629715 0.906184 0.760907
ITEM: TIMESTEP
11
ITEM: NUMBER OF ATOMS
6
ITEM: BOX BOUNDS ff ff ff
-5.0000000000000000e+00 5.0000000000000000e+00
-5.0000000000000000e+00 5.0000000000000000e+00
-5.0000000000000000e+00 5.0000000000000000e+00
ITEM: ATOMS id type xs ys zs
1 1 0.300971 0.0904836 0.172758
2 1 0.172182 0.610787 0.346207
3 1 0.471376 0.990735 0.414068
4 1 0.904438 0.356209 0.726113
5 1 0.424909 0.436018 0.565631
6 1 0.629639 0.906199 0.760744
ITEM: TIMESTEP
12
ITEM: NUMBER OF ATOMS
6
ITEM: BOX BOUNDS ff ff ff
-5.0000000000000000e+00 5.0000000000000000e+00
-5.0000000000000000e+00 5.0000000000000000e+00
-5.0000000000000000e+00 5.0000000000000000e+00
ITEM: ATOMS id type xs ys zs
1 1 0.300973 0.0905086 0.172776
2 1 0.172358 0.610702 0.346338
3 1 0.471424 0.990657 0.414221
4 1 0.904409 0.35622 0.726104
5 1 0.424789 0.436129 0.5655
6 1 0.629563 0.906216 0.76058
ITEM: TIMESTEP
13
ITEM: NUMBER OF ATOMS
6
ITEM: BOX BOUNDS ff ff ff
-5.0000000000000000e+00 5.0000000000000000e+00
-5.0000000000000000e+00 5.0000000000000000e+00
-5.0000000000000000e+00 5.0000000000000000e+00
ITEM: ATOMS id type xs ys zs
1 1 0.300975 0.0905337 0.172794
2 1 0.172535 0.610617 0.346471
3 1 0.471472 0.990578 0.414376
4 1 0.90438 0.356231 0.726095
5 1 0.424667 0.436241 0.565368
6 1 0.629487 0.906232 0.760416
ITEM: TIMESTEP
14
ITEM: NUMBER OF ATOMS
6
ITEM: BOX BOUNDS ff ff ff
-5.0000000000000000e+00 5.0000000000000000e+00
-5.0000000000000000e+00 5.0000000000000000e+00
-5.0000000000000000e+00 5.0000000000000000e+00
ITEM: ATOMS id type xs ys zs
1 1 0.300977 0.0905588 0.172813
2 1 0.172714 0.61053 0.346605
3 1 0.471521 0.990499 0.414531
4 1 0.90435 0.356242 0.726086
5 1 0.424544 0.436353 0.565234
6 1 0.62941 0.906248 0.76025
ITEM: TIMESTEP
15
ITEM: NUMBER OF ATOMS
6
ITEM: BOX BOUNDS ff ff ff
-5.0000000000000000e+00 5.0000000000000000e+00
-5.0000000000000000e+00 5.0000000000000000e+00
-5.0000000000000000e+00 5.0000000000000000e+00
ITEM: ATOMS id type xs ys zs
1 1 0.300979 0.0905839 0.172831
2 1 0.172894 0.610443 0.34674
3 1 0.471571 0.99042 0.414688
4 1 0.904321 0.356253 0.726077
5 1 0.424419 0.436467 0.5651
6 1 0.629332 0.906265 0.760083
ITEM: TIMESTEP
16
ITEM: NUMBER OF ATOMS
6
ITEM: BOX BOUNDS ff ff ff
-5.0000000000000000e+00 5.0000000000000000e+00
-5.0000000000000000e+00 5.0000000000000000e+00
-5.0000000000000000e+00 5.0000000000000000e+00
ITEM: ATOMS id type xs ys zs
1 1 0.30098 0.0906091 0.17285
2 1 0.173075 0.610354 0.346876
3 1 0.471621 0.990341 0.414845
4 1 0.904292 0.356264 0.726068
5 1 0.424294 0.436581 0.564965
6 1 0.629254 0.906282 0.759915
ITEM: TIMESTEP
17
ITEM: NUMBER OF ATOMS
6
ITEM: BOX BOUNDS ff ff ff
-5.0000000000000000e+00 5.0000000000000000e+00
-5.0000000000000000e+00 5.0000000000000000e+00
-5.0000000000000000e+00 5.0000000000000000e+00
ITEM: ATOMS id type xs ys zs
1 1 0.300982 0.0906343 0.172868
2 1 0.173258 0.610265 0.347013
3 1 0.471671 0.990261 0.415004
4 1 0.904263 0.356276 0.726059
5 1 0.424167 0.436697 0.564828
6 1 0.629176 0.906299 0.759747
ITEM: TIMESTEP
18
ITEM: NUMBER OF ATOMS
6
ITEM: BOX BOUNDS ff ff ff
-5.0000000000000000e+00 5.0000000000000000e+00
-5.0000000000000000e+00 5.0000000000000000e+00
-5.0000000000000000e+00 5.0000000000000000e+00
ITEM: ATOMS id type xs ys zs
1 1 0.300984 0.0906594 0.172886
2 1 0.17344 0.610176 0.34715
3 1 0.471721 0.990181 0.415162
4 1 0.904234 0.356287 0.726051
5 1 0.424039 0.436813 0.564692
6 1 0.629097 0.906316 0.759578
ITEM: TIMESTEP
19
ITEM: NUMBER OF ATOMS
6
ITEM: BOX BOUNDS ff ff ff
-5.0000000000000000e+00 5.0000000000000000e+00
-5.0000000000000000e+00 5.0000000000000000e+00
-5.0000000000000000e+00 5.0000000000000000e+00
ITEM: ATOMS id type xs ys zs
1 1 0.300986 0.0906846 0.172905
2 1 0.173626 0.610085 0.34729
3 1 0.471772 0.990101 0.415323
4 1 0.904205 0.356298 0.726042
5 1 0.423909 0.43693 0.564553
6 1 0.629017 0.906334 0.759407
ITEM: TIMESTEP
20
ITEM: NUMBER OF ATOMS
6
ITEM: BOX BOUNDS ff ff ff
-5.0000000000000000e+00 5.0000000000000000e+00
-5.0000000000000000e+00 5.0000000000000000e+00
-5.0000000000000000e+00 5.0000000000000000e+00
ITEM: ATOMS id type xs ys zs
1 1 0.300988 0.09071 0.172923
2 1 0.173812 0.609993 0.347431
3 1 0.471824 0.99002 0.415485
4 1 0.904176 0.356309 0.726033
5 1 0.423778 0.437048 0.564412
6 1 0.628937 0.906351 0.759235
ITEM: TIMESTEP
21
ITEM: NUMBER OF ATOMS
6
ITEM: BOX BOUNDS ff ff ff
-5.0000000000000000e+00 5.0000000000000000e+00
-5.0000000000000000e+00 5.0000000000000000e+00
-5.0000000000000000e+00 5.0000000000000000e+00
ITEM: ATOMS id type xs ys zs
1 1 0.30099 0.0907353 0.172942
2 1 0.174001 0.6099 0.347573
3 1 0.471876 0.989939 0.415648
4 1 0.904147 0.35632 0.726024
5 1 0.423645 0.437168 0.564271
6 1 0.628857 0.90637 0.759062
ITEM: TIMESTEP
22
ITEM: NUMBER OF ATOMS
6
ITEM: BOX BOUNDS ff ff ff
-5.0000000000000000e+00 5.0000000000000000e+00
-5.0000000000000000e+00 5.0000000000000000e+00
-5.0000000000000000e+00 5.0000000000000000e+00
ITEM: ATOMS id type xs ys zs
1 1 0.300991 0.0907607 0.172961
2 1 0.17419 0.609806 0.347716
3 1 0.471929 0.989858 0.415812
4 1 0.904119 0.356331 0.726015
5 1 0.423511 0.437288 0.564128
6 1 0.628776 0.906388 0.758887
ITEM: TIMESTEP
23
ITEM: NUMBER OF ATOMS
6
ITEM: BOX BOUNDS ff ff ff
-5.0000000000000000e+00 5.0000000000000000e+00
-5.0000000000000000e+00 5.0000000000000000e+00
-5.0000000000000000e+00 5.0000000000000000e+00
ITEM: ATOMS id type xs ys zs
1 1 0.300993 0.0907862 0.172979
2 1 0.174381 0.609711 0.34786
3 1 0.471983 0.989776 0.415977
4 1 0.90409 0.356343 0.726006
5 1 0.423375 0.43741 0.563984
6 1 0.628694 0.906406 0.758712
ITEM: TIMESTEP
24
ITEM: NUMBER OF ATOMS
6
ITEM: BOX BOUNDS ff ff ff
-5.0000000000000000e+00 5.0000000000000000e+00
-5.0000000000000000e+00 5.0000000000000000e+00
-5.0000000000000000e+00 5.0000000000000000e+00
ITEM: ATOMS id type xs ys zs
1 1 0.300995 0.0908116 0.172998
2 1 0.174574 0.609615 0.348006
3 1 0.472036 0.989694 0.416144
4 1 0.904061 0.356354 0.725998
5 1 0.423238 0.437533 0.563839
6 1 0.628612 0.906425 0.758535
ITEM: TIMESTEP
25
ITEM: NUMBER OF ATOMS
6
ITEM: BOX BOUNDS ff ff ff
-5.0000000000000000e+00 5.0000000000000000e+00
-5.0000000000000000e+00 5.0000000000000000e+00
-5.0000000000000000e+00 5.0000000000000000e+00
ITEM: ATOMS id type xs ys zs
1 1 0.300997 0.0908372 0.173016
2 1 0.174768 0.609518 0.348153
3 1 0.472091 0.989611 0.416311
4 1 0.904032 0.356365 0.725989
5 1 0.423099 0.437657 0.563692
6 1 0.628529 0.906444 0.758357
ITEM: TIMESTEP
26
ITEM: NUMBER OF ATOMS
6
ITEM: BOX BOUNDS ff ff ff
-5.0000000000000000e+00 5.0000000000000000e+00
-5.0000000000000000e+00 5.0000000000000000e+00
-5.0000000000000000e+00 5.0000000000000000e+00
ITEM: ATOMS id type xs ys zs
1 1 0.300999 0.0908627 0.173035
2 1 0.174964 0.60942 0.348302
3 1 0.472145 0.989528 0.41648
4 1 0.904004 0.356376 0.72598
5 1 0.422958 0.437781 0.563544
6 1 0.628445 0.906464 0.758178
ITEM: TIMESTEP
27
ITEM: NUMBER OF ATOMS
6
ITEM: BOX BOUNDS ff ff ff
-5.0000000000000000e+00 5.0000000000000000e+00
-5.0000000000000000e+00 5.0000000000000000e+00
-5.0000000000000000e+00 5.0000000000000000e+00
ITEM: ATOMS id type xs ys zs
1 1 0.301001 0.0908883 0.173054
2 1 0.175162 0.60932 0.348452
3 1 0.472201 0.989445 0.41665
4 1 0.903975 0.356387 0.725971
5 1 0.422816 0.437908 0.563395
6 1 0.628361 0.906483 0.757998
ITEM: TIMESTEP
28
ITEM: NUMBER OF ATOMS
6
ITEM: BOX BOUNDS ff ff ff
-5.0000000000000000e+00 5.0000000000000000e+00
-5.0000000000000000e+00 5.0000000000000000e+00
-5.0000000000000000e+00 5.0000000000000000e+00
ITEM: ATOMS id type xs ys zs
1 1 0.301002 0.0909139 0.173073
2 1 0.175361 0.60922 0.348603
3 1 0.472257 0.989361 0.416821
4 1 0.903946 0.356398 0.725963
5 1 0.422673 0.438035 0.563244
6 1 0.628277 0.906503 0.757816
ITEM: TIMESTEP
29
ITEM: NUMBER OF ATOMS
6
ITEM: BOX BOUNDS ff ff ff
-5.0000000000000000e+00 5.0000000000000000e+00
-5.0000000000000000e+00 5.0000000000000000e+00
-5.0000000000000000e+00 5.0000000000000000e+00
ITEM: ATOMS id type xs ys zs
1 1 0.301004 0.0909396 0.173091
2 1 0.175562 0.609119 0.348756
3 1 0.472313 0.989277 0.416994
4 1 0.903918 0.356409 0.725954
5 1 0.422527 0.438163 0.563091
6 1 0.628191 0.906523 0.757633
ITEM: TIMESTEP
30
ITEM: NUMBER OF ATOMS
6
ITEM: BOX BOUNDS ff ff ff
-5.0000000000000000e+00 5.0000000000000000e+00
-5.0000000000000000e+00 5.0000000000000000e+00
-5.0000000000000000e+00 5.0000000000000000e+00
ITEM: ATOMS id type xs ys zs
1 1 0.301006 0.0909653 0.17311
2 1 0.175765 0.609016 0.34891
3 1 0.47237 0.989193 0.417167
4 1 0.90389 0.356421 0.725945
5 1 0.42238 0.438293 0.562937
6 1 0.628106 0.906544 0.757449
ITEM: TIMESTEP
31
ITEM: NUMBER OF ATOMS
6
ITEM: BOX BOUNDS ff ff ff
-5.0000000000000000e+00 5.0000000000000000e+00
-5.0000000000000000e+00 5.0000000000000000e+00
-5.0000000000000000e+00 5.0000000000000000e+00
ITEM: ATOMS id type xs ys zs
1 1 0.301008 0.0909911 0.173129
2 1 0.175969 0.608912 0.349066
3 1 0.472428 0.989108 0.417342
4 1 0.903861 0.356432 0.725936
5 1 0.422231 0.438424 0.562782
6 1 0.628019 0.906564 0.757264
ITEM: TIMESTEP
32
ITEM: NUMBER OF ATOMS
6
ITEM: BOX BOUNDS ff ff ff
-5.0000000000000000e+00 5.0000000000000000e+00
-5.0000000000000000e+00 5.0000000000000000e+00
-5.0000000000000000e+00 5.0000000000000000e+00
ITEM: ATOMS id type xs ys zs
1 1 0.30101 0.0910169 0.173148
2 1 0.176175 0.608807 0.349223
3 1 0.472486 0.989023 0.417519
4 1 0.903833 0.356443 0.725928
5 1 0.42208 0.438556 0.562625
6 1 0.627932 0.906585 0.757077
ITEM: TIMESTEP
33
ITEM: NUMBER OF ATOMS
6
ITEM: BOX BOUNDS ff ff ff
-5.0000000000000000e+00 5.0000000000000000e+00
-5.0000000000000000e+00 5.0000000000000000e+00
-5.0000000000000000e+00 5.0000000000000000e+00
ITEM: ATOMS id type xs ys zs
1 1 0.301012 0.0910428 0.173167
2 1 0.176383 0.608701 0.349382
3 1 0.472545 0.988938 0.417697
4 1 0.903805 0.356454 0.725919
5 1 0.421927 0.43869 0.562466
6 1 0.627844 0.906607 0.756889
ITEM: TIMESTEP
34
ITEM: NUMBER OF ATOMS
6
ITEM: BOX BOUNDS ff ff ff
-5.0000000000000000e+00 5.0000000000000000e+00
-5.0000000000000000e+00 5.0000000000000000e+00
-5.0000000000000000e+00 5.0000000000000000e+00
ITEM: ATOMS id type xs ys zs
1 1 0.301013 0.0910687 0.173185
2 1 0.176593 0.608593 0.349543
3 1 0.472604 0.988852 0.417876
4 1 0.903776 0.356465 0.72591
5 1 0.421773 0.438824 0.562306
6 1 0.627756 0.906628 0.756699
ITEM: TIMESTEP
35
ITEM: NUMBER OF ATOMS
6
ITEM: BOX BOUNDS ff ff ff
-5.0000000000000000e+00 5.0000000000000000e+00
-5.0000000000000000e+00 5.0000000000000000e+00
-5.0000000000000000e+00 5.0000000000000000e+00
ITEM: ATOMS id type xs ys zs
1 1 0.301015 0.0910946 0.173204
2 1 0.176805 0.608485 0.349705
3 1 0.472665 0.988765 0.418056
4 1 0.903748 0.356476 0.725902
5 1 0.421616 0.438961 0.562144
6 1 0.627667 0.90665 0.756508
ITEM: TIMESTEP
36
ITEM: NUMBER OF ATOMS
6
ITEM: BOX BOUNDS ff ff ff
-5.0000000000000000e+00 5.0000000000000000e+00
-5.0000000000000000e+00 5.0000000000000000e+00
-5.0000000000000000e+00 5.0000000000000000e+00
ITEM: ATOMS id type xs ys zs
1 1 0.301017 0.0911203 0.173223
2 1 0.177017 0.608375 0.349867
3 1 0.472725 0.988679 0.418236
4 1 0.90372 0.356487 0.725893
5 1 0.421459 0.439097 0.561982
6 1 0.627578 0.906672 0.756318
ITEM: TIMESTEP
37
ITEM: NUMBER OF ATOMS
6
ITEM: BOX BOUNDS ff ff ff
-5.0000000000000000e+00 5.0000000000000000e+00
-5.0000000000000000e+00 5.0000000000000000e+00
-5.0000000000000000e+00 5.0000000000000000e+00
ITEM: ATOMS id type xs ys zs
1 1 0.301019 0.0911464 0.173242
2 1 0.177233 0.608264 0.350033
3 1 0.472786 0.988592 0.418419
4 1 0.903692 0.356498 0.725884
5 1 0.421298 0.439236 0.561817
6 1 0.627488 0.906695 0.756124
ITEM: TIMESTEP
38
ITEM: NUMBER OF ATOMS
6
ITEM: BOX BOUNDS ff ff ff
-5.0000000000000000e+00 5.0000000000000000e+00
-5.0000000000000000e+00 5.0000000000000000e+00
-5.0000000000000000e+00 5.0000000000000000e+00
ITEM: ATOMS id type xs ys zs
1 1 0.301021 0.0911724 0.173261
2 1 0.177451 0.608151 0.3502
3 1 0.472848 0.988505 0.418604
4 1 0.903664 0.356509 0.725876
5 1 0.421136 0.439376 0.561649
6 1 0.627396 0.906718 0.755929
ITEM: TIMESTEP
39
ITEM: NUMBER OF ATOMS
6
ITEM: BOX BOUNDS ff ff ff
-5.0000000000000000e+00 5.0000000000000000e+00
-5.0000000000000000e+00 5.0000000000000000e+00
-5.0000000000000000e+00 5.0000000000000000e+00
ITEM: ATOMS id type xs ys zs
1 1 0.301023 0.0911985 0.17328
2 1 0.177671 0.608037 0.350369
3 1 0.472911 0.988417 0.41879
4 1 0.903636 0.35652 0.725867
5 1 0.420971 0.439518 0.56148
6 1 0.627305 0.906741 0.755732
ITEM: TIMESTEP
40
ITEM: NUMBER OF ATOMS
6
ITEM: BOX BOUNDS ff ff ff
-5.0000000000000000e+00 5.0000000000000000e+00
-5.0000000000000000e+00 5.0000000000000000e+00
-5.0000000000000000e+00 5.0000000000000000e+00
ITEM: ATOMS id type xs ys zs
1 1 0.301024 0.0912247 0.173299
2 1 0.177893 0.607921 0.35054
3 1 0.472974 0.988328 0.418978
4 1 0.903609 0.356531 0.725858
5 1 0.420804 0.439662 0.56131
6 1 0.627212 0.906764 0.755534
ITEM: TIMESTEP
41
ITEM: NUMBER OF ATOMS
6
ITEM: BOX BOUNDS ff ff ff
-5.0000000000000000e+00 5.0000000000000000e+00
-5.0000000000000000e+00 5.0000000000000000e+00
-5.0000000000000000e+00 5.0000000000000000e+00
ITEM: ATOMS id type xs ys zs
1 1 0.301026 0.0912509 0.173318
2 1 0.178117 0.607804 0.350713
3 1 0.473038 0.988239 0.419167
4 1 0.903581 0.356543 0.72585
5 1 0.420635 0.439807 0.561137
6 1 0.627119 0.906788 0.755334
ITEM: TIMESTEP
42
ITEM: NUMBER OF ATOMS
6
ITEM: BOX BOUNDS ff ff ff
-5.0000000000000000e+00 5.0000000000000000e+00
-5.0000000000000000e+00 5.0000000000000000e+00
-5.0000000000000000e+00 5.0000000000000000e+00
ITEM: ATOMS id type xs ys zs
1 1 0.301028 0.0912772 0.173337
2 1 0.178344 0.607685 0.350888
3 1 0.473103 0.98815 0.419358
4 1 0.903553 0.356554 0.725841
5 1 0.420463 0.439954 0.560962
6 1 0.627025 0.906812 0.755133
ITEM: TIMESTEP
43
ITEM: NUMBER OF ATOMS
6
ITEM: BOX BOUNDS ff ff ff
-5.0000000000000000e+00 5.0000000000000000e+00
-5.0000000000000000e+00 5.0000000000000000e+00
-5.0000000000000000e+00 5.0000000000000000e+00
ITEM: ATOMS id type xs ys zs
1 1 0.30103 0.0913035 0.173356
2 1 0.178573 0.607565 0.351065
3 1 0.473168 0.98806 0.41955
4 1 0.903525 0.356565 0.725833
5 1 0.42029 0.440102 0.560785
6 1 0.62693 0.906837 0.75493
ITEM: TIMESTEP
44
ITEM: NUMBER OF ATOMS
6
ITEM: BOX BOUNDS ff ff ff
-5.0000000000000000e+00 5.0000000000000000e+00
-5.0000000000000000e+00 5.0000000000000000e+00
-5.0000000000000000e+00 5.0000000000000000e+00
ITEM: ATOMS id type xs ys zs
1 1 0.301032 0.0913299 0.173376
2 1 0.178804 0.607443 0.351244
3 1 0.473234 0.98797 0.419744
4 1 0.903498 0.356576 0.725824
5 1 0.420113 0.440252 0.560606
6 1 0.626835 0.906862 0.754725
ITEM: TIMESTEP
45
ITEM: NUMBER OF ATOMS
6
ITEM: BOX BOUNDS ff ff ff
-5.0000000000000000e+00 5.0000000000000000e+00
-5.0000000000000000e+00 5.0000000000000000e+00
-5.0000000000000000e+00 5.0000000000000000e+00
ITEM: ATOMS id type xs ys zs
1 1 0.301034 0.0913563 0.173395
2 1 0.179038 0.607319 0.351425
3 1 0.473301 0.987879 0.41994
4 1 0.90347 0.356587 0.725815
5 1 0.419935 0.440404 0.560425
6 1 0.626738 0.906887 0.754519
ITEM: TIMESTEP
46
ITEM: NUMBER OF ATOMS
6
ITEM: BOX BOUNDS ff ff ff
-5.0000000000000000e+00 5.0000000000000000e+00
-5.0000000000000000e+00 5.0000000000000000e+00
-5.0000000000000000e+00 5.0000000000000000e+00
ITEM: ATOMS id type xs ys zs
1 1 0.301035 0.0913827 0.173414
2 1 0.179275 0.607194 0.351608
3 1 0.473369 0.987788 0.420137
4 1 0.903443 0.356598 0.725807
5 1 0.419754 0.440557 0.560242
6 1 0.626641 0.906913 0.754311
ITEM: TIMESTEP
47
ITEM: NUMBER OF ATOMS
6
ITEM: BOX BOUNDS ff ff ff
-5.0000000000000000e+00 5.0000000000000000e+00
-5.0000000000000000e+00 5.0000000000000000e+00
-5.0000000000000000e+00 5.0000000000000000e+00
ITEM: ATOMS id type xs ys zs
1 1 0.301037 0.0914092 0.173433
2 1 0.179514 0.607066 0.351793
3 1 0.473437 0.987696 0.420336
4 1 0.903415 0.356609 0.725798
5 1 0.41957 0.440713 0.560057
6 1 0.626543 0.906939 0.754101
ITEM: TIMESTEP
48
ITEM: NUMBER OF ATOMS
6
ITEM: BOX BOUNDS ff ff ff
-5.0000000000000000e+00 5.0000000000000000e+00
-5.0000000000000000e+00 5.0000000000000000e+00
-5.0000000000000000e+00 5.0000000000000000e+00
ITEM: ATOMS id type xs ys zs
1 1 0.301039 0.0914358 0.173453
2 1 0.179755 0.606938 0.351981
3 1 0.473506 0.987603 0.420537
4 1 0.903388 0.35662 0.72579
5 1 0.419383 0.44087 0.559869
6 1 0.626444 0.906965 0.75389
ITEM: TIMESTEP
49
ITEM: NUMBER OF ATOMS
6
ITEM: BOX BOUNDS ff ff ff
-5.0000000000000000e+00 5.0000000000000000e+00
-5.0000000000000000e+00 5.0000000000000000e+00
-5.0000000000000000e+00 5.0000000000000000e+00
ITEM: ATOMS id type xs ys zs
1 1 0.301041 0.0914624 0.173472
2 1 0.179999 0.606807 0.352171
3 1 0.473576 0.987511 0.420739
4 1 0.903361 0.356631 0.725781
5 1 0.419194 0.441029 0.559679
6 1 0.626345 0.906992 0.753677
ITEM: TIMESTEP
50
ITEM: NUMBER OF ATOMS
6
ITEM: BOX BOUNDS ff ff ff
-5.0000000000000000e+00 5.0000000000000000e+00
-5.0000000000000000e+00 5.0000000000000000e+00
-5.0000000000000000e+00 5.0000000000000000e+00
ITEM: ATOMS id type xs ys zs
1 1 0.301043 0.0914891 0.173491
2 1 0.180247 0.606674 0.352363
3 1 0.473647 0.987417 0.420944
4 1 0.903333 0.356642 0.725773
5 1 0.419002 0.44119 0.559486
6 1 0.626244 0.907019 0.753462
ITEM: TIMESTEP
51
ITEM: NUMBER OF ATOMS
6
ITEM: BOX BOUNDS ff ff ff
-5.0000000000000000e+00 5.0000000000000000e+00
-5.0000000000000000e+00 5.0000000000000000e+00
-5.0000000000000000e+00 5.0000000000000000e+00
ITEM: ATOMS id type xs ys zs
1 1 0.301045 0.0915158 0.173511
2 1 0.180497 0.60654 0.352558
3 1 0.473718 0.987323 0.42115
4 1 0.903306 0.356653 0.725764
5 1 0.418807 0.441353 0.559291
6 1 0.626143 0.907047 0.753245
ITEM: TIMESTEP
52
ITEM: NUMBER OF ATOMS
6
ITEM: BOX BOUNDS ff ff ff
-5.0000000000000000e+00 5.0000000000000000e+00
-5.0000000000000000e+00 5.0000000000000000e+00
-5.0000000000000000e+00 5.0000000000000000e+00
ITEM: ATOMS id type xs ys zs
1 1 0.301046 0.0915426 0.17353
2 1 0.180749 0.606403 0.352756
3 1 0.473791 0.987229 0.421358
4 1 0.903279 0.356664 0.725756
5 1 0.418609 0.441518 0.559094
6 1 0.62604 0.907075 0.753026
ITEM: TIMESTEP
53
ITEM: NUMBER OF ATOMS
6
ITEM: BOX BOUNDS ff ff ff
-5.0000000000000000e+00 5.0000000000000000e+00
-5.0000000000000000e+00 5.0000000000000000e+00
-5.0000000000000000e+00 5.0000000000000000e+00
ITEM: ATOMS id type xs ys zs
1 1 0.301048 0.0915694 0.17355
2 1 0.181005 0.606264 0.352956
3 1 0.473864 0.987134 0.421568
4 1 0.903252 0.356675 0.725747
5 1 0.418409 0.441686 0.558894
6 1 0.625937 0.907103 0.752805
ITEM: TIMESTEP
54
ITEM: NUMBER OF ATOMS
6
ITEM: BOX BOUNDS ff ff ff
-5.0000000000000000e+00 5.0000000000000000e+00
-5.0000000000000000e+00 5.0000000000000000e+00
-5.0000000000000000e+00 5.0000000000000000e+00
ITEM: ATOMS id type xs ys zs
1 1 0.30105 0.0915959 0.173569
2 1 0.181261 0.606125 0.353156
3 1 0.473938 0.98704 0.421777
4 1 0.903225 0.356686 0.725739
5 1 0.418207 0.441853 0.558693
6 1 0.625834 0.907132 0.752585
ITEM: TIMESTEP
55
ITEM: NUMBER OF ATOMS
6
ITEM: BOX BOUNDS ff ff ff
-5.0000000000000000e+00 5.0000000000000000e+00
-5.0000000000000000e+00 5.0000000000000000e+00
-5.0000000000000000e+00 5.0000000000000000e+00
ITEM: ATOMS id type xs ys zs
1 1 0.301052 0.0916229 0.173588
2 1 0.181524 0.605982 0.353361
3 1 0.474013 0.986944 0.421991
4 1 0.903198 0.356697 0.725731
5 1 0.418 0.442025 0.558487
6 1 0.625729 0.907161 0.752361
ITEM: TIMESTEP
56
ITEM: NUMBER OF ATOMS
6
ITEM: BOX BOUNDS ff ff ff
-5.0000000000000000e+00 5.0000000000000000e+00
-5.0000000000000000e+00 5.0000000000000000e+00
-5.0000000000000000e+00 5.0000000000000000e+00
ITEM: ATOMS id type xs ys zs
1 1 0.301054 0.0916499 0.173608
2 1 0.181789 0.605837 0.35357
3 1 0.474089 0.986847 0.422207
4 1 0.903172 0.356708 0.725722
5 1 0.417789 0.442199 0.558279
6 1 0.625623 0.907191 0.752134
ITEM: TIMESTEP
57
ITEM: NUMBER OF ATOMS
6
ITEM: BOX BOUNDS ff ff ff
-5.0000000000000000e+00 5.0000000000000000e+00
-5.0000000000000000e+00 5.0000000000000000e+00
-5.0000000000000000e+00 5.0000000000000000e+00
ITEM: ATOMS id type xs ys zs
1 1 0.301056 0.0916769 0.173627
2 1 0.182058 0.60569 0.353781
3 1 0.474166 0.98675 0.422424
4 1 0.903145 0.356719 0.725714
5 1 0.417575 0.442376 0.558067
6 1 0.625516 0.907221 0.751905
ITEM: TIMESTEP
58
ITEM: NUMBER OF ATOMS
6
ITEM: BOX BOUNDS ff ff ff
-5.0000000000000000e+00 5.0000000000000000e+00
-5.0000000000000000e+00 5.0000000000000000e+00
-5.0000000000000000e+00 5.0000000000000000e+00
ITEM: ATOMS id type xs ys zs
1 1 0.301058 0.091704 0.173647
2 1 0.182331 0.60554 0.353995
3 1 0.474243 0.986652 0.422645
4 1 0.903118 0.35673 0.725705
5 1 0.417358 0.442555 0.557853
6 1 0.625408 0.907252 0.751674
ITEM: TIMESTEP
59
ITEM: NUMBER OF ATOMS
6
ITEM: BOX BOUNDS ff ff ff
-5.0000000000000000e+00 5.0000000000000000e+00
-5.0000000000000000e+00 5.0000000000000000e+00
-5.0000000000000000e+00 5.0000000000000000e+00
ITEM: ATOMS id type xs ys zs
1 1 0.301059 0.0917312 0.173667
2 1 0.182607 0.605387 0.354212
3 1 0.474322 0.986553 0.422867
4 1 0.903092 0.356741 0.725697
5 1 0.417136 0.442736 0.557635
6 1 0.625299 0.907283 0.751441
ITEM: TIMESTEP
60
ITEM: NUMBER OF ATOMS
6
ITEM: BOX BOUNDS ff ff ff
-5.0000000000000000e+00 5.0000000000000000e+00
-5.0000000000000000e+00 5.0000000000000000e+00
-5.0000000000000000e+00 5.0000000000000000e+00
ITEM: ATOMS id type xs ys zs
1 1 0.301061 0.0917585 0.173686
2 1 0.182887 0.605232 0.354433
3 1 0.474402 0.986454 0.423091
4 1 0.903065 0.356752 0.725689
5 1 0.416912 0.44292 0.557414
6 1 0.625189 0.907315 0.751206
ITEM: TIMESTEP
61
ITEM: NUMBER OF ATOMS
6
ITEM: BOX BOUNDS ff ff ff
-5.0000000000000000e+00 5.0000000000000000e+00
-5.0000000000000000e+00 5.0000000000000000e+00
-5.0000000000000000e+00 5.0000000000000000e+00
ITEM: ATOMS id type xs ys zs
1 1 0.301063 0.0917858 0.173706
2 1 0.183171 0.605075 0.354657
3 1 0.474483 0.986354 0.423318
4 1 0.903039 0.356763 0.72568
5 1 0.416683 0.443107 0.55719
6 1 0.625078 0.907347 0.750968
ITEM: TIMESTEP
62
ITEM: NUMBER OF ATOMS
6
ITEM: BOX BOUNDS ff ff ff
-5.0000000000000000e+00 5.0000000000000000e+00
-5.0000000000000000e+00 5.0000000000000000e+00
-5.0000000000000000e+00 5.0000000000000000e+00
ITEM: ATOMS id type xs ys zs
1 1 0.301065 0.0918131 0.173726
2 1 0.183458 0.604914 0.354884
3 1 0.474565 0.986254 0.423547
4 1 0.903012 0.356774 0.725672
5 1 0.41645 0.443297 0.556962
6 1 0.624965 0.907379 0.750729
ITEM: TIMESTEP
63
ITEM: NUMBER OF ATOMS
6
ITEM: BOX BOUNDS ff ff ff
-5.0000000000000000e+00 5.0000000000000000e+00
-5.0000000000000000e+00 5.0000000000000000e+00
-5.0000000000000000e+00 5.0000000000000000e+00
ITEM: ATOMS id type xs ys zs
1 1 0.301067 0.0918406 0.173746
2 1 0.18375 0.604751 0.355115
3 1 0.474648 0.986153 0.423778
4 1 0.902986 0.356784 0.725664
5 1 0.416213 0.44349 0.55673
6 1 0.624852 0.907413 0.750486
ITEM: TIMESTEP
64
ITEM: NUMBER OF ATOMS
6
ITEM: BOX BOUNDS ff ff ff
-5.0000000000000000e+00 5.0000000000000000e+00
-5.0000000000000000e+00 5.0000000000000000e+00
-5.0000000000000000e+00 5.0000000000000000e+00
ITEM: ATOMS id type xs ys zs
1 1 0.301069 0.0918681 0.173766
2 1 0.184047 0.604585 0.355349
3 1 0.474732 0.986051 0.424012
4 1 0.90296 0.356795 0.725656
5 1 0.415971 0.443686 0.556495
6 1 0.624737 0.907446 0.750241
ITEM: TIMESTEP
65
ITEM: NUMBER OF ATOMS
6
ITEM: BOX BOUNDS ff ff ff
-5.0000000000000000e+00 5.0000000000000000e+00
-5.0000000000000000e+00 5.0000000000000000e+00
-5.0000000000000000e+00 5.0000000000000000e+00
ITEM: ATOMS id type xs ys zs
1 1 0.30107 0.0918956 0.173786
2 1 0.184347 0.604416 0.355588
3 1 0.474817 0.985949 0.424248
4 1 0.902934 0.356806 0.725647
5 1 0.415726 0.443884 0.556256
6 1 0.624622 0.907481 0.749994
ITEM: TIMESTEP
66
ITEM: NUMBER OF ATOMS
6
ITEM: BOX BOUNDS ff ff ff
-5.0000000000000000e+00 5.0000000000000000e+00
-5.0000000000000000e+00 5.0000000000000000e+00
-5.0000000000000000e+00 5.0000000000000000e+00
ITEM: ATOMS id type xs ys zs
1 1 0.301072 0.0919232 0.173805
2 1 0.184652 0.604244 0.35583
3 1 0.474904 0.985846 0.424487
4 1 0.902908 0.356817 0.725639
5 1 0.415475 0.444086 0.556013
6 1 0.624505 0.907516 0.749744
ITEM: TIMESTEP
67
ITEM: NUMBER OF ATOMS
6
ITEM: BOX BOUNDS ff ff ff
-5.0000000000000000e+00 5.0000000000000000e+00
-5.0000000000000000e+00 5.0000000000000000e+00
-5.0000000000000000e+00 5.0000000000000000e+00
ITEM: ATOMS id type xs ys zs
1 1 0.301074 0.0919509 0.173825
2 1 0.184962 0.604068 0.356076
3 1 0.474991 0.985742 0.424728
4 1 0.902882 0.356828 0.725631
5 1 0.41522 0.444292 0.555766
6 1 0.624386 0.907551 0.749492
ITEM: TIMESTEP
68
ITEM: NUMBER OF ATOMS
6
ITEM: BOX BOUNDS ff ff ff
-5.0000000000000000e+00 5.0000000000000000e+00
-5.0000000000000000e+00 5.0000000000000000e+00
-5.0000000000000000e+00 5.0000000000000000e+00
ITEM: ATOMS id type xs ys zs
1 1 0.301076 0.0919787 0.173845
2 1 0.185277 0.603889 0.356327
3 1 0.47508 0.985637 0.424972
4 1 0.902856 0.356839 0.725623
5 1 0.41496 0.444501 0.555515
6 1 0.624267 0.907587 0.749237
ITEM: TIMESTEP
69
ITEM: NUMBER OF ATOMS
6
ITEM: BOX BOUNDS ff ff ff
-5.0000000000000000e+00 5.0000000000000000e+00
-5.0000000000000000e+00 5.0000000000000000e+00
-5.0000000000000000e+00 5.0000000000000000e+00
ITEM: ATOMS id type xs ys zs
1 1 0.301078 0.0920066 0.173866
2 1 0.185597 0.603707 0.356582
3 1 0.47517 0.985532 0.425219
4 1 0.90283 0.35685 0.725614
5 1 0.414695 0.444713 0.555259
6 1 0.624146 0.907624 0.748979
ITEM: TIMESTEP
70
ITEM: NUMBER OF ATOMS
6
ITEM: BOX BOUNDS ff ff ff
-5.0000000000000000e+00 5.0000000000000000e+00
-5.0000000000000000e+00 5.0000000000000000e+00
-5.0000000000000000e+00 5.0000000000000000e+00
ITEM: ATOMS id type xs ys zs
1 1 0.30108 0.0920345 0.173886
2 1 0.185923 0.603521 0.356842
3 1 0.475261 0.985425 0.425468
4 1 0.902804 0.356861 0.725606