ITEM: TIMESTEP
0
ITEM: NUMBER OF ATOMS
21
ITEM: BOX BOUNDS ff ff ff
-5.0000000000000000e+00 5.0000000000000000e+00
-5.0000000000000000e+00 5.0000000000000000e+00
-5.0000000000000000e+00 5.0000000000000000e+00
ITEM: ATOMS id type xs ys zs
1 1 0.0140818 0.672944 0.16853
2 1 0.476783 0.299225 0.0701353
3 1 0.764114 0.458493 0.88495
4 1 0.354475 0.65444 0.166232
5 1 0.867535 0.662774 0.248944
6 1 0.00840548 0.270943 0.734017
7 1 0.630605 0.582702 0.475253
8 1 0.571265 0.243047 0.897433
9 1 0.157865 0.236414 0.406013
10 1 0.864639 0.991288 0.582883
11 1 0.514154 0.379023 0.233602
12 1 0.157158 0.34848 0.898873
13 1 0.360043 0.245552 0.992711
14 1 0.487448 0.535822 0.562133
15 1 0.767844 0.161954 0.966751
16 1 0.186943 0.954387 0.374276
17 1 0.455742 0.659854 0.164844
18 1 0.538615 0.508499 0.348492
19 1 0.108667 0.361992 0.00181877
20 1 0.568147 0.846014 0.955771
21 1 0.640115 0.415445 0.381409
ITEM: TIMESTEP
1
ITEM: NUMBER OF ATOMS
21
ITEM: BOX BOUNDS ff ff ff
-5.0000000000000000e+00 5.0000000000000000e+00
-5.0000000000000000e+00 5.0000000000000000e+00
-5.0000000000000000e+00 5.0000000000000000e+00
ITEM: ATOMS id type xs ys zs
1 1 0.0140843 0.672943 0.16853
2 1 0.476804 0.299272 0.0702287
3 1 0.76411 0.458486 0.884951
4 1 0.348194 0.654099 0.166322
5 1 0.867532 0.662773 0.248946
6 1 0.00841925 0.270949 0.734031
7 1 0.630391 0.582517 0.475169
8 1 0.571272 0.243041 0.897451
9 1 0.157865 0.236415 0.406014
10 1 0.864639 0.991288 0.582883
11 1 0.514196 0.379112 0.233665
12 1 0.157157 0.348467 0.898864
13 1 0.360052 0.245558 0.992695
14 1 0.487592 0.535857 0.562016
15 1 0.767818 0.161968 0.966741
16 1 0.186943 0.954385 0.374275
17 1 0.462031 0.660177 0.16477
18 1 0.539059 0.508109 0.348655
19 1 0.108668 0.361993 0.00181999
20 1 0.568147 0.846014 0.955771
21 1 0.63967 0.415869 0.381276
ITEM: TIMESTEP
2
ITEM: NUMBER OF ATOMS
21
ITEM: BOX BOUNDS ff ff ff
-5.0000000000000000e+00 5.0000000000000000e+00
-5.0000000000000000e+00 5.0000000000000000e+00
-5.0000000000000000e+00 5.0000000000000000e+00
ITEM: ATOMS id type xs ys zs
1 1 0.0141416 0.67293 0.168529
2 1 0.477246 0.300291 0.0722485
3 1 0.764028 0.458348 0.884962
4 1 0.348003 0.653996 0.166397
5 1 0.867462 0.66274 0.248985
6 1 0.00871738 0.271095 0.734326
7 1 0.62569 0.578433 0.473332
8 1 0.571439 0.242903 0.897838
9 1 0.157873 0.236431 0.406023
10 1 0.864635 0.99128 0.582881
11 1 0.515141 0.381077 0.235047
12 1 0.157153 0.348183 0.898671
13 1 0.360241 0.245691 0.992361
14 1 0.490749 0.536616 0.559448
15 1 0.767254 0.162266 0.966527
16 1 0.186947 0.954361 0.374261
17 1 0.462386 0.659891 0.165034
18 1 0.549028 0.499347 0.352307
19 1 0.10869 0.362015 0.00184656
20 1 0.56815 0.846006 0.955764
21 1 0.62967 0.425392 0.378283
ITEM: TIMESTEP
3
ITEM: NUMBER OF ATOMS
21
ITEM: BOX BOUNDS ff ff ff
-5.0000000000000000e+00 5.0000000000000000e+00
-5.0000000000000000e+00 5.0000000000000000e+00
-5.0000000000000000e+00 5.0000000000000000e+00
ITEM: ATOMS id type xs ys zs
1 1 0.0141575 0.672927 0.168528
2 1 0.47737 0.300577 0.0728068
3 1 0.764005 0.458309 0.884966
4 1 0.350197 0.654085 0.166388
5 1 0.867442 0.662731 0.248995
6 1 0.00880142 0.271136 0.734409
7 1 0.623968 0.576772 0.472554
8 1 0.571489 0.242863 0.897947
9 1 0.157875 0.236436 0.406025
10 1 0.864634 0.991278 0.58288
11 1 0.515564 0.381756 0.235697
12 1 0.157151 0.348104 0.898616
13 1 0.360294 0.245727 0.992268
14 1 0.491919 0.53688 0.558509
15 1 0.767093 0.16235 0.966466
16 1 0.186948 0.954355 0.374257
17 1 0.460231 0.659705 0.165121
18 1 0.549568 0.499166 0.352782
19 1 0.108696 0.362021 0.0018539
20 1 0.568151 0.846003 0.955763
21 1 0.62909 0.42611 0.378241
ITEM: TIMESTEP
4
ITEM: NUMBER OF ATOMS
21
ITEM: BOX BOUNDS ff ff ff
-5.0000000000000000e+00 5.0000000000000000e+00
-5.0000000000000000e+00 5.0000000000000000e+00
-5.0000000000000000e+00 5.0000000000000000e+00
ITEM: ATOMS id type xs ys zs
1 1 0.0142456 0.672906 0.168527
2 1 0.478066 0.302172 0.0759148
3 1 0.763878 0.458094 0.884985
4 1 0.351909 0.654044 0.166459
5 1 0.867333 0.66268 0.249053
6 1 0.00927224 0.271365 0.734876
7 1 0.613968 0.567151 0.468062
8 1 0.571769 0.242639 0.898555
9 1 0.157888 0.236462 0.406039
10 1 0.864627 0.991266 0.582878
11 1 0.517973 0.385612 0.23943
12 1 0.157136 0.347661 0.898308
13 1 0.360593 0.24593 0.99175
14 1 0.498721 0.538404 0.553036
15 1 0.766189 0.162824 0.966125
16 1 0.186954 0.954318 0.374235
17 1 0.458738 0.65921 0.165478
18 1 0.549769 0.500965 0.35472
19 1 0.10873 0.362054 0.00189494
20 1 0.568156 0.845991 0.955753
21 1 0.62873 0.427545 0.378992
ITEM: TIMESTEP
5
ITEM: NUMBER OF ATOMS
21
ITEM: BOX BOUNDS ff ff ff
-5.0000000000000000e+00 5.0000000000000000e+00
-5.0000000000000000e+00 5.0000000000000000e+00
-5.0000000000000000e+00 5.0000000000000000e+00
ITEM: ATOMS id type xs ys zs
1 1 0.0143289 0.672887 0.168526
2 1 0.478722 0.303677 0.0788424
3 1 0.763758 0.457889 0.885003
4 1 0.349772 0.653823 0.166562
5 1 0.867229 0.662631 0.249107
6 1 0.00971903 0.271582 0.73532
7 1 0.603968 0.557633 0.463655
8 1 0.572036 0.242425 0.899132
9 1 0.157899 0.236487 0.406052
10 1 0.864621 0.991255 0.582875
11 1 0.520287 0.389317 0.243054
12 1 0.157121 0.347242 0.898015
13 1 0.360876 0.246123 0.99126
14 1 0.505547 0.539909 0.547508
15 1 0.765331 0.163274 0.965801
16 1 0.18696 0.954282 0.374214
17 1 0.461084 0.658922 0.165781
18 1 0.549651 0.503276 0.356767
19 1 0.108762 0.362085 0.00193379
20 1 0.568161 0.84598 0.955744
21 1 0.62881 0.428592 0.37992
ITEM: TIMESTEP
6
ITEM: NUMBER OF ATOMS
21
ITEM: BOX BOUNDS ff ff ff
-5.0000000000000000e+00 5.0000000000000000e+00
-5.0000000000000000e+00 5.0000000000000000e+00
-5.0000000000000000e+00 5.0000000000000000e+00
ITEM: ATOMS id type xs ys zs
1 1 0.0143697 0.672877 0.168525
2 1 0.479032 0.304377 0.0801625
3 1 0.763699 0.457787 0.885013
4 1 0.347702 0.653665 0.166622
5 1 0.86718 0.662608 0.249131
6 1 0.00994805 0.271693 0.735547
7 1 0.593968 0.549252 0.460001
8 1 0.572189 0.242311 0.899425
9 1 0.157905 0.236499 0.406059
10 1 0.864618 0.99125 0.582874
11 1 0.521708 0.391597 0.245588
12 1 0.157106 0.347032 0.897861
13 1 0.361022 0.246216 0.991017
14 1 0.512685 0.540986 0.540925
15 1 0.764881 0.163507 0.965633
16 1 0.186962 0.954265 0.374204
17 1 0.463263 0.658821 0.165931
18 1 0.550556 0.506672 0.361524
19 1 0.108778 0.362101 0.00195293
20 1 0.568163 0.845974 0.95574
21 1 0.628912 0.429802 0.381335
ITEM: TIMESTEP
7
ITEM: NUMBER OF ATOMS
21
ITEM: BOX BOUNDS ff ff ff
-5.0000000000000000e+00 5.0000000000000000e+00
-5.0000000000000000e+00 5.0000000000000000e+00
-5.0000000000000000e+00 5.0000000000000000e+00
ITEM: ATOMS id type xs ys zs
1 1 0.0143826 0.672874 0.168525
2 1 0.479121 0.304577 0.0805293
3 1 0.76368 0.457755 0.885016
4 1 0.349602 0.653731 0.166626
5 1 0.867165 0.6626 0.249138
6 1 0.0100212 0.271729 0.73562
7 1 0.59192 0.546493 0.458304
8 1 0.572242 0.242273 0.899518
9 1 0.157907 0.236502 0.406061
10 1 0.864617 0.991249 0.582873
11 1 0.5222 0.392338 0.246498
12 1 0.157099 0.346966 0.897811
13 1 0.361068 0.246244 0.990942
14 1 0.514386 0.541032 0.538919
15 1 0.764734 0.163583 0.965579
16 1 0.186963 0.95426 0.374201
17 1 0.461397 0.658675 0.165996
18 1 0.550684 0.507495 0.363116
19 1 0.108782 0.362106 0.00195886
20 1 0.568164 0.845973 0.955739
21 1 0.628509 0.43084 0.382102
ITEM: TIMESTEP
8
ITEM: NUMBER OF ATOMS
21
ITEM: BOX BOUNDS ff ff ff
-5.0000000000000000e+00 5.0000000000000000e+00
-5.0000000000000000e+00 5.0000000000000000e+00
-5.0000000000000000e+00 5.0000000000000000e+00
ITEM: ATOMS id type xs ys zs
1 1 0.0144517 0.672858 0.168524
2 1 0.479592 0.305632 0.082452
3 1 0.76358 0.457579 0.885034
4 1 0.351341 0.653703 0.166695
5 1 0.867085 0.662561 0.249174
6 1 0.0104218 0.271922 0.73602
7 1 0.594002 0.536493 0.454796
8 1 0.57254 0.242062 0.900026
9 1 0.157916 0.236523 0.406072
10 1 0.864613 0.99124 0.582871
11 1 0.52493 0.396379 0.251591
12 1 0.157058 0.346606 0.897537
13 1 0.361322 0.246399 0.990534
14 1 0.517093 0.540371 0.533961
15 1 0.763926 0.163996 0.965281
16 1 0.186968 0.954231 0.374184
17 1 0.459845 0.658265 0.166295
18 1 0.543448 0.508421 0.358633
19 1 0.108807 0.362133 0.001991
20 1 0.568168 0.845964 0.955732
21 1 0.627536 0.435953 0.38767
ITEM: TIMESTEP
9
ITEM: NUMBER OF ATOMS
21
ITEM: BOX BOUNDS ff ff ff
-5.0000000000000000e+00 5.0000000000000000e+00
-5.0000000000000000e+00 5.0000000000000000e+00
-5.0000000000000000e+00 5.0000000000000000e+00
ITEM: ATOMS id type xs ys zs
1 1 0.0144734 0.672853 0.168524
2 1 0.479738 0.30596 0.0830471
3 1 0.763548 0.457524 0.88504
4 1 0.351001 0.653657 0.166721
5 1 0.867059 0.662548 0.249185
6 1 0.0105482 0.271983 0.736146
7 1 0.595013 0.533104 0.453189
8 1 0.572634 0.241996 0.900186
9 1 0.157919 0.236529 0.406075
10 1 0.864611 0.991238 0.582871
11 1 0.525794 0.397725 0.253268
12 1 0.157045 0.346493 0.89745
13 1 0.361402 0.246447 0.990405
14 1 0.517653 0.540159 0.532677
15 1 0.763671 0.164127 0.965187
16 1 0.186969 0.954221 0.374178
17 1 0.460244 0.658172 0.166387
18 1 0.54158 0.508317 0.357353
19 1 0.108815 0.362141 0.00200111
20 1 0.568169 0.845961 0.95573
21 1 0.626753 0.438136 0.389453
ITEM: TIMESTEP
10
ITEM: NUMBER OF ATOMS
21
ITEM: BOX BOUNDS ff ff ff
-5.0000000000000000e+00 5.0000000000000000e+00
-5.0000000000000000e+00 5.0000000000000000e+00
-5.0000000000000000e+00 5.0000000000000000e+00
ITEM: ATOMS id type xs ys zs
1 1 0.0144806 0.672852 0.168524
2 1 0.479779 0.306052 0.083209
3 1 0.763538 0.457505 0.885042
4 1 0.348916 0.653558 0.166738
5 1 0.867051 0.662544 0.249189
6 1 0.0105921 0.272004 0.73619
7 1 0.595931 0.531443 0.45151
8 1 0.572671 0.241972 0.900241
9 1 0.15792 0.236531 0.406077
10 1 0.864611 0.991237 0.582871
11 1 0.52611 0.398507 0.254163
12 1 0.157039 0.346455 0.897419
13 1 0.36143 0.246463 0.990362
14 1 0.517308 0.540068 0.532705
15 1 0.76358 0.164173 0.965154
16 1 0.18697 0.954218 0.374177
17 1 0.462353 0.658219 0.166416
18 1 0.542325 0.507009 0.357417
19 1 0.108818 0.362144 0.00200449
20 1 0.56817 0.84596 0.955729
21 1 0.625052 0.440378 0.389938
ITEM: TIMESTEP
11
ITEM: NUMBER OF ATOMS
21
ITEM: BOX BOUNDS ff ff ff
-5.0000000000000000e+00 5.0000000000000000e+00
-5.0000000000000000e+00 5.0000000000000000e+00
-5.0000000000000000e+00 5.0000000000000000e+00
ITEM: ATOMS id type xs ys zs
1 1 0.0144916 0.672849 0.168523
2 1 0.47984 0.306188 0.0834479
3 1 0.763521 0.457477 0.885045
4 1 0.348895 0.653539 0.166753
5 1 0.867038 0.662538 0.249194
6 1 0.0106587 0.272036 0.736257
7 1 0.596438 0.530419 0.451617
8 1 0.572726 0.241935 0.900325
9 1 0.157922 0.236535 0.406078
10 1 0.86461 0.991236 0.58287
11 1 0.526614 0.399771 0.255613
12 1 0.15703 0.346396 0.897373
13 1 0.361472 0.246487 0.990297
14 1 0.517766 0.539826 0.531741
15 1 0.763442 0.164243 0.965104
16 1 0.186971 0.954214 0.374174
17 1 0.462409 0.658159 0.16647
18 1 0.541359 0.506037 0.355967
19 1 0.108822 0.362148 0.00200961
20 1 0.56817 0.845958 0.955728
21 1 0.624449 0.441302 0.390488
ITEM: TIMESTEP
12
ITEM: NUMBER OF ATOMS
21
ITEM: BOX BOUNDS ff ff ff
-5.0000000000000000e+00 5.0000000000000000e+00
-5.0000000000000000e+00 5.0000000000000000e+00
-5.0000000000000000e+00 5.0000000000000000e+00
ITEM: ATOMS id type xs ys zs
1 1 0.0145049 0.672846 0.168523
2 1 0.479908 0.306345 0.0837212
3 1 0.763502 0.457442 0.885048
4 1 0.349935 0.653559 0.166768
5 1 0.867023 0.66253 0.249201
6 1 0.0107394 0.272074 0.736338
7 1 0.595799 0.530559 0.451598
8 1 0.572794 0.24189 0.900426
9 1 0.157924 0.236538 0.40608
10 1 0.864609 0.991234 0.58287
11 1 0.527271 0.401533 0.257617
12 1 0.157019 0.346326 0.897316
13 1 0.361523 0.246516 0.990219
14 1 0.518297 0.539527 0.530606
15 1 0.763274 0.164328 0.965043
16 1 0.186971 0.954208 0.37417
17 1 0.46141 0.658042 0.166538
18 1 0.540183 0.505538 0.354975
19 1 0.108827 0.362153 0.0020158
20 1 0.568171 0.845957 0.955726
21 1 0.62496 0.440145 0.390273
ITEM: TIMESTEP
13
ITEM: NUMBER OF ATOMS
21
ITEM: BOX BOUNDS ff ff ff
-5.0000000000000000e+00 5.0000000000000000e+00
-5.0000000000000000e+00 5.0000000000000000e+00
-5.0000000000000000e+00 5.0000000000000000e+00
ITEM: ATOMS id type xs ys zs
1 1 0.0145668 0.672832 0.168522
2 1 0.480217 0.307054 0.0849501
3 1 0.763412 0.457282 0.885065
4 1 0.351484 0.653518 0.166848
5 1 0.866951 0.662494 0.249233
6 1 0.0111158 0.272255 0.736715
7 1 0.594596 0.528841 0.446177
8 1 0.573112 0.241681 0.900899
9 1 0.157933 0.236557 0.40609
10 1 0.864605 0.991227 0.582868
11 1 0.530474 0.410326 0.267617
12 1 0.156966 0.345998 0.897051
13 1 0.361759 0.246651 0.989853
14 1 0.518434 0.538394 0.52768
15 1 0.76249 0.164724 0.964758
16 1 0.186975 0.954182 0.374155
17 1 0.460059 0.657629 0.166852
18 1 0.538461 0.501062 0.352851
19 1 0.108848 0.362177 0.00204453
20 1 0.568174 0.845949 0.955721
21 1 0.62401 0.438458 0.389124
ITEM: TIMESTEP
14
ITEM: NUMBER OF ATOMS
21
ITEM: BOX BOUNDS ff ff ff
-5.0000000000000000e+00 5.0000000000000000e+00
-5.0000000000000000e+00 5.0000000000000000e+00
-5.0000000000000000e+00 5.0000000000000000e+00
ITEM: ATOMS id type xs ys zs
1 1 0.0145882 0.672827 0.168522
2 1 0.480319 0.307291 0.0853575
3 1 0.76338 0.457227 0.885071
4 1 0.350903 0.653461 0.166876
5 1 0.866926 0.662481 0.249244
6 1 0.0112468 0.272318 0.736846
7 1 0.594163 0.528563 0.444612
8 1 0.573224 0.241607 0.901063
9 1 0.157936 0.236563 0.406094
10 1 0.864604 0.991224 0.582867
11 1 0.531694 0.413683 0.271486
12 1 0.156947 0.345884 0.896958
13 1 0.361841 0.246698 0.989727
14 1 0.518482 0.537995 0.52666
15 1 0.762217 0.164863 0.964659
16 1 0.186977 0.954173 0.37415
17 1 0.46071 0.657528 0.166961
18 1 0.537847 0.499145 0.351744
19 1 0.108856 0.362186 0.00205449
20 1 0.568176 0.845946 0.955718
21 1 0.623608 0.437629 0.388402
ITEM: TIMESTEP
15
ITEM: NUMBER OF ATOMS
21
ITEM: BOX BOUNDS ff ff ff
-5.0000000000000000e+00 5.0000000000000000e+00
-5.0000000000000000e+00 5.0000000000000000e+00
-5.0000000000000000e+00 5.0000000000000000e+00
ITEM: ATOMS id type xs ys zs
1 1 0.0146023 0.672823 0.168522
2 1 0.480359 0.307394 0.0855227
3 1 0.763359 0.457189 0.885075
4 1 0.34773 0.653317 0.166894
5 1 0.866909 0.662473 0.249251
6 1 0.0113379 0.272361 0.736938
7 1 0.593684 0.529735 0.444865
8 1 0.57331 0.241554 0.901177
9 1 0.157938 0.236568 0.406096
10 1 0.864603 0.991223 0.582867
11 1 0.533174 0.416631 0.275535
12 1 0.156931 0.345806 0.896893
13 1 0.361898 0.246728 0.989642
14 1 0.518564 0.537687 0.525911
15 1 0.762021 0.16496 0.964588
16 1 0.186978 0.954167 0.374146
17 1 0.463933 0.657558 0.16704
18 1 0.537255 0.497206 0.350018
19 1 0.108861 0.362191 0.00206115
20 1 0.568177 0.845944 0.955717
21 1 0.623021 0.435774 0.386314
ITEM: TIMESTEP
16
ITEM: NUMBER OF ATOMS
21
ITEM: BOX BOUNDS ff ff ff
-5.0000000000000000e+00 5.0000000000000000e+00
-5.0000000000000000e+00 5.0000000000000000e+00
-5.0000000000000000e+00 5.0000000000000000e+00
ITEM: ATOMS id type xs ys zs
1 1 0.0146031 0.672823 0.168522
2 1 0.480361 0.3074 0.0855315
3 1 0.763358 0.457187 0.885076
4 1 0.347667 0.653313 0.166896
5 1 0.866909 0.662472 0.249252
6 1 0.0113429 0.272364 0.736943
7 1 0.593676 0.529733 0.444794
8 1 0.573314 0.241551 0.901183
9 1 0.157938 0.236568 0.406096
10 1 0.864603 0.991223 0.582867
11 1 0.533257 0.416705 0.275683
12 1 0.15693 0.345802 0.896889
13 1 0.361901 0.24673 0.989637
14 1 0.518549 0.537672 0.52589
15 1 0.76201 0.164966 0.964585
16 1 0.186978 0.954166 0.374146
17 1 0.463998 0.657556 0.167044
18 1 0.537243 0.497202 0.350035
19 1 0.108861 0.362192 0.00206152
20 1 0.568177 0.845944 0.955717
21 1 0.622967 0.435724 0.386225
ITEM: TIMESTEP
17
ITEM: NUMBER OF ATOMS
21
ITEM: BOX BOUNDS ff ff ff
-5.0000000000000000e+00 5.0000000000000000e+00
-5.0000000000000000e+00 5.0000000000000000e+00
-5.0000000000000000e+00 5.0000000000000000e+00
ITEM: ATOMS id type xs ys zs
1 1 0.01461 0.672821 0.168522
2 1 0.480377 0.307443 0.085599
3 1 0.763348 0.457169 0.885078
4 1 0.348995 0.65335 0.166907
5 1 0.866901 0.662468 0.249255
6 1 0.0113858 0.272384 0.736986
7 1 0.593894 0.528608 0.442822
8 1 0.573355 0.241526 0.901236
9 1 0.157939 0.23657 0.406097
10 1 0.864603 0.991222 0.582867
11 1 0.534007 0.415792 0.275654
12 1 0.156923 0.345766 0.896858
13 1 0.361928 0.246744 0.989597
14 1 0.518125 0.537578 0.526047
15 1 0.761918 0.165012 0.964552
16 1 0.186978 0.954164 0.374144
17 1 0.462693 0.657465 0.167079
18 1 0.537467 0.498931 0.352081
19 1 0.108864 0.362194 0.00206464
20 1 0.568177 0.845943 0.955716
21 1 0.622157 0.436141 0.38591
ITEM: TIMESTEP
18
ITEM: NUMBER OF ATOMS
21
ITEM: BOX BOUNDS ff ff ff
-5.0000000000000000e+00 5.0000000000000000e+00
-5.0000000000000000e+00 5.0000000000000000e+00
-5.0000000000000000e+00 5.0000000000000000e+00
ITEM: ATOMS id type xs ys zs
1 1 0.0146281 0.672817 0.168522
2 1 0.48042 0.307557 0.0857794
3 1 0.763322 0.457122 0.885083
4 1 0.351364 0.653405 0.166936
5 1 0.86688 0.662458 0.249264
6 1 0.0115001 0.272439 0.737101
7 1 0.59434 0.527964 0.442472
8 1 0.573465 0.241458 0.901379
9 1 0.157942 0.236575 0.4061
10 1 0.864601 0.99122 0.582866
11 1 0.536178 0.415882 0.277962
12 1 0.156902 0.345669 0.896776
13 1 0.361998 0.246783 0.989492
14 1 0.518329 0.537176 0.524981
15 1 0.761671 0.165135 0.964463
16 1 0.18698 0.954156 0.37414
17 1 0.460386 0.657268 0.167174
18 1 0.535648 0.500693 0.352381
19 1 0.10887 0.362201 0.00207293
20 1 0.568178 0.845941 0.955715
21 1 0.621043 0.435374 0.384415
ITEM: TIMESTEP
19
ITEM: NUMBER OF ATOMS
21
ITEM: BOX BOUNDS ff ff ff
-5.0000000000000000e+00 5.0000000000000000e+00
-5.0000000000000000e+00 5.0000000000000000e+00
-5.0000000000000000e+00 5.0000000000000000e+00
ITEM: ATOMS id type xs ys zs
1 1 0.014693 0.672802 0.168521
2 1 0.480574 0.307964 0.0864216
3 1 0.763226 0.45695 0.885102
4 1 0.351704 0.653308 0.167027
5 1 0.866804 0.66242 0.249296
6 1 0.0119149 0.272637 0.737517
7 1 0.596278 0.526372 0.443068
8 1 0.573866 0.241212 0.901895
9 1 0.157951 0.236595 0.406111
10 1 0.864597 0.991213 0.582865
11 1 0.544524 0.417477 0.287962
12 1 0.156826 0.345318 0.896476
13 1 0.362255 0.24692 0.98911
14 1 0.519449 0.535668 0.520616
15 1 0.760774 0.165582 0.964142
16 1 0.186984 0.954129 0.374123
17 1 0.460271 0.656851 0.167531
18 1 0.529646 0.504506 0.351838
19 1 0.108892 0.362227 0.00210291
20 1 0.568182 0.845932 0.955709
21 1 0.615234 0.43321 0.377638
ITEM: TIMESTEP
20
ITEM: NUMBER OF ATOMS
21
ITEM: BOX BOUNDS ff ff ff
-5.0000000000000000e+00 5.0000000000000000e+00
-5.0000000000000000e+00 5.0000000000000000e+00
-5.0000000000000000e+00 5.0000000000000000e+00
ITEM: ATOMS id type xs ys zs
1 1 0.0147099 0.672798 0.168521
2 1 0.480613 0.308068 0.0865844
3 1 0.763202 0.456905 0.885108
4 1 0.351067 0.653259 0.167048
5 1 0.866784 0.66241 0.249305
6 1 0.0120236 0.272689 0.737627
7 1 0.596933 0.525608 0.442389
8 1 0.573973 0.241147 0.90203
9 1 0.157954 0.2366 0.406114
10 1 0.864596 0.991211 0.582864
11 1 0.54675 0.417419 0.290198
12 1 0.156806 0.345226 0.896397
13 1 0.362322 0.246956 0.98901
14 1 0.519396 0.535312 0.51979
15 1 0.760538 0.165699 0.964057
16 1 0.186985 0.954121 0.374119
17 1 0.460967 0.656766 0.167629
18 1 0.528514 0.505827 0.352486
19 1 0.108898 0.362233 0.00211072
20 1 0.568183 0.84593 0.955707
21 1 0.613431 0.433107 0.375978
ITEM: TIMESTEP
21
ITEM: NUMBER OF ATOMS
21
ITEM: BOX BOUNDS ff ff ff
-5.0000000000000000e+00 5.0000000000000000e+00
-5.0000000000000000e+00 5.0000000000000000e+00
-5.0000000000000000e+00 5.0000000000000000e+00
ITEM: ATOMS id type xs ys zs
1 1 0.0147169 0.672796 0.168521
2 1 0.480627 0.308103 0.0866402
3 1 0.763191 0.456886 0.88511
4 1 0.349966 0.653211 0.167054
5 1 0.866776 0.662405 0.249308
6 1 0.0120705 0.272711 0.737674
7 1 0.597387 0.524589 0.440473
8 1 0.574022 0.241118 0.902089
9 1 0.157955 0.236602 0.406115
10 1 0.864596 0.99121 0.582864
11 1 0.546591 0.416388 0.289055
12 1 0.156796 0.345187 0.896363
13 1 0.362351 0.246971 0.988969
14 1 0.518754 0.535227 0.519953
15 1 0.760434 0.165751 0.964021
16 1 0.186985 0.954118 0.374117
17 1 0.462095 0.656757 0.167677
18 1 0.528994 0.506776 0.354219
19 1 0.1089 0.362236 0.00211399
20 1 0.568183 0.845929 0.955706
21 1 0.613255 0.434319 0.377031
ITEM: TIMESTEP
22
ITEM: NUMBER OF ATOMS
21
ITEM: BOX BOUNDS ff ff ff
-5.0000000000000000e+00 5.0000000000000000e+00
-5.0000000000000000e+00 5.0000000000000000e+00
-5.0000000000000000e+00 5.0000000000000000e+00
ITEM: ATOMS id type xs ys zs
1 1 0.0147222 0.672795 0.16852
2 1 0.480637 0.308127 0.0866786
3 1 0.763183 0.456872 0.885112
4 1 0.349839 0.653198 0.167061
5 1 0.866769 0.662402 0.249311
6 1 0.0121058 0.272728 0.737709
7 1 0.597504 0.524686 0.440552
8 1 0.57406 0.241096 0.902132
9 1 0.157955 0.236604 0.406116
10 1 0.864596 0.991209 0.582864
11 1 0.546479 0.416488 0.28902
12 1 0.156788 0.345158 0.896337
13 1 0.362372 0.246982 0.988938
14 1 0.51878 0.535094 0.519524
15 1 0.760355 0.16579 0.963993
16 1 0.186986 0.954116 0.374116
17 1 0.462241 0.656728 0.16771
18 1 0.529147 0.506523 0.354463
19 1 0.108902 0.362238 0.00211642
20 1 0.568183 0.845929 0.955706
21 1 0.613039 0.434527 0.377095
ITEM: TIMESTEP
23
ITEM: NUMBER OF ATOMS
21
ITEM: BOX BOUNDS ff ff ff
-5.0000000000000000e+00 5.0000000000000000e+00
-5.0000000000000000e+00 5.0000000000000000e+00
-5.0000000000000000e+00 5.0000000000000000e+00
ITEM: ATOMS id type xs ys zs
1 1 0.014732 0.672793 0.16852
2 1 0.480655 0.308172 0.0867496
3 1 0.763169 0.456846 0.885115
4 1 0.350002 0.653186 0.167078
5 1 0.866758 0.662397 0.249315
6 1 0.0121718 0.272759 0.737776
7 1 0.597861 0.525201 0.441096
8 1 0.574133 0.241054 0.902214
9 1 0.157957 0.236607 0.406117
10 1 0.864595 0.991208 0.582863
11 1 0.546306 0.416844 0.28915
12 1 0.156773 0.345104 0.896288
13 1 0.362412 0.247002 0.98888
14 1 0.518814 0.534842 0.518707
15 1 0.760206 0.165863 0.96394
16 1 0.186986 0.954112 0.374114
17 1 0.462114 0.656662 0.167769
18 1 0.529027 0.506087 0.354555
19 1 0.108905 0.362242 0.00212094
20 1 0.568184 0.845928 0.955705
21 1 0.612885 0.434383 0.376999
ITEM: TIMESTEP
24
ITEM: NUMBER OF ATOMS
21
ITEM: BOX BOUNDS ff ff ff
-5.0000000000000000e+00 5.0000000000000000e+00
-5.0000000000000000e+00 5.0000000000000000e+00
-5.0000000000000000e+00 5.0000000000000000e+00
ITEM: ATOMS id type xs ys zs
1 1 0.0148862 0.672757 0.168519
2 1 0.480944 0.308878 0.0878677
3 1 0.76294 0.456428 0.885165
4 1 0.351152 0.652955 0.167334
5 1 0.866575 0.662305 0.249392
6 1 0.0132154 0.273256 0.738828
7 1 0.604655 0.528627 0.440764
8 1 0.575288 0.24039 0.903506
9 1 0.15798 0.236654 0.406143
10 1 0.864585 0.991191 0.582859
11 1 0.543262 0.419664 0.288245
12 1 0.156538 0.344246 0.895515
13 1 0.363043 0.247322 0.987973
14 1 0.516207 0.531181 0.508707
15 1 0.757851 0.167019 0.963109
16 1 0.186997 0.954046 0.374075
17 1 0.461526 0.655669 0.168706
18 1 0.528413 0.503244 0.361143
19 1 0.108957 0.362302 0.00219221
20 1 0.568193 0.845908 0.955691
21 1 0.611436 0.43525 0.379339
ITEM: TIMESTEP
25
ITEM: NUMBER OF ATOMS
21
ITEM: BOX BOUNDS ff ff ff
-5.0000000000000000e+00 5.0000000000000000e+00
-5.0000000000000000e+00 5.0000000000000000e+00
-5.0000000000000000e+00 5.0000000000000000e+00
ITEM: ATOMS id type xs ys zs
1 1 0.0150344 0.672722 0.168517
2 1 0.481222 0.309557 0.0889439
3 1 0.762719 0.456025 0.885214
4 1 0.351419 0.652712 0.16757
5 1 0.866399 0.662217 0.249465
6 1 0.0142216 0.273734 0.739842
7 1 0.610937 0.531756 0.440031
8 1 0.57641 0.239747 0.904751
9 1 0.158002 0.2367 0.406168
10 1 0.864576 0.991174 0.582855
11 1 0.540922 0.422368 0.288004
12 1 0.156309 0.343421 0.894768
13 1 0.36365 0.247629 0.987102
14 1 0.513726 0.527542 0.498707
15 1 0.755575 0.168135 0.962306
16 1 0.187007 0.953983 0.374038
17 1 0.461798 0.654736 0.169616
18 1 0.526627 0.50201 0.367966
19 1 0.109007 0.362361 0.00226075
20 1 0.568201 0.845889 0.955677
21 1 0.610881 0.434874 0.381271
ITEM: TIMESTEP
26
ITEM: NUMBER OF ATOMS
21
ITEM: BOX BOUNDS ff ff ff
-5.0000000000000000e+00 5.0000000000000000e+00
-5.0000000000000000e+00 5.0000000000000000e+00
-5.0000000000000000e+00 5.0000000000000000e+00
ITEM: ATOMS id type xs ys zs
1 1 0.0151545 0.672693 0.168515
2 1 0.481446 0.310111 0.0898189
3 1 0.76254 0.455698 0.885254
4 1 0.350534 0.652494 0.167741
5 1 0.866257 0.662146 0.249525
6 1 0.0150448 0.274125 0.740673
7 1 0.614411 0.533362 0.438761
8 1 0.577353 0.239214 0.90577
9 1 0.15802 0.236736 0.406188
10 1 0.864569 0.99116 0.582851
11 1 0.540032 0.425179 0.289672
12 1 0.156116 0.342749 0.894154
13 1 0.364144 0.247877 0.986396
14 1 0.512715 0.524236 0.488707
15 1 0.753694 0.169054 0.961646
16 1 0.187015 0.953932 0.374008
17 1 0.46312 0.654001 0.170371
18 1 0.523854 0.502869 0.374766
19 1 0.109048 0.362408 0.00231633
20 1 0.568208 0.845874 0.955666
21 1 0.61137 0.433372 0.382273
ITEM: TIMESTEP
27
ITEM: NUMBER OF ATOMS
21
ITEM: BOX BOUNDS ff ff ff
-5.0000000000000000e+00 5.0000000000000000e+00
-5.0000000000000000e+00 5.0000000000000000e+00
-5.0000000000000000e+00 5.0000000000000000e+00
ITEM: ATOMS id type xs ys zs
1 1 0.0151936 0.672684 0.168515
2 1 0.481518 0.310292 0.0901037
3 1 0.762481 0.45559 0.885267
4 1 0.350444 0.652426 0.167801
5 1 0.86621 0.662123 0.249545
6 1 0.0153212 0.274256 0.740952
7 1 0.61414 0.53271 0.437605
8 1 0.5777 0.239025 0.906112
9 1 0.158026 0.236749 0.406195
10 1 0.864566 0.991156 0.58285
11 1 0.540446 0.426942 0.292149
12 1 0.156044 0.342528 0.893945
13 1 0.364307 0.247956 0.986168
14 1 0.513233 0.522912 0.484228
15 1 0.753042 0.16937 0.961419
16 1 0.187017 0.953915 0.373998
17 1 0.463349 0.65376 0.17061
18 1 0.523741 0.502857 0.377439
19 1 0.109061 0.362423 0.00233443
20 1 0.56821 0.845869 0.955663
21 1 0.610593 0.433748 0.382173
ITEM: TIMESTEP
28
ITEM: NUMBER OF ATOMS
21
ITEM: BOX BOUNDS ff ff ff
-5.0000000000000000e+00 5.0000000000000000e+00
-5.0000000000000000e+00 5.0000000000000000e+00
-5.0000000000000000e+00 5.0000000000000000e+00
ITEM: ATOMS id type xs ys zs
1 1 0.0152008 0.672683 0.168515
2 1 0.481531 0.310326 0.0901556
3 1 0.762471 0.45557 0.88527
4 1 0.350491 0.652414 0.167813
5 1 0.866201 0.662118 0.249549
6 1 0.0153739 0.274281 0.741005
7 1 0.614114 0.532501 0.437307
8 1 0.577773 0.238987 0.906178
9 1 0.158027 0.236751 0.406196
10 1 0.864566 0.991155 0.58285
11 1 0.540581 0.427388 0.292841
12 1 0.156029 0.342486 0.893905
13 1 0.364337 0.247971 0.986126
14 1 0.513277 0.522714 0.483861
15 1 0.752913 0.169432 0.961374
16 1 0.187018 0.953912 0.373996
17 1 0.463328 0.653716 0.170652
18 1 0.523725 0.502729 0.377332
19 1 0.109063 0.362426 0.00233777
20 1 0.568211 0.845869 0.955662
21 1 0.610416 0.433862 0.382147
ITEM: TIMESTEP
29
ITEM: NUMBER OF ATOMS
21
ITEM: BOX BOUNDS ff ff ff
-5.0000000000000000e+00 5.0000000000000000e+00
-5.0000000000000000e+00 5.0000000000000000e+00
-5.0000000000000000e+00 5.0000000000000000e+00
ITEM: ATOMS id type xs ys zs
1 1 0.0152047 0.672682 0.168515
2 1 0.481537 0.310343 0.0901822
3 1 0.762465 0.455558 0.885271
4 1 0.350672 0.65241 0.167824
5 1 0.866196 0.662116 0.249552
6 1 0.0154079 0.274296 0.74104
7 1 0.61422 0.532243 0.436966
8 1 0.577837 0.238958 0.90622
9 1 0.158028 0.236752 0.406196
10 1 0.864566 0.991154 0.58285
11 1 0.54074 0.427849 0.293615
12 1 0.156015 0.342462 0.893877
13 1 0.364355 0.247978 0.986104
14 1 0.513122 0.522749 0.485052
15 1 0.752817 0.169476 0.961343
16 1 0.187018 0.953911 0.373995
17 1 0.463161 0.65369 0.17067
18 1 0.523607 0.502455 0.375599
19 1 0.109064 0.362428 0.0023396
20 1 0.568211 0.845868 0.955662
21 1 0.610402 0.433914 0.3822
ITEM: TIMESTEP
30
ITEM: NUMBER OF ATOMS
21
ITEM: BOX BOUNDS ff ff ff
-5.0000000000000000e+00 5.0000000000000000e+00
-5.0000000000000000e+00 5.0000000000000000e+00
-5.0000000000000000e+00 5.0000000000000000e+00
ITEM: ATOMS id type xs ys zs
1 1 0.0152145 0.672679 0.168515
2 1 0.481551 0.310387 0.0902469
3 1 0.762449 0.455529 0.885275
4 1 0.350904 0.652396 0.167846
5 1 0.866183 0.66211 0.249557
6 1 0.0154922 0.274336 0.741126
7 1 0.613498 0.531639 0.436206
8 1 0.577997 0.238883 0.906326
9 1 0.15803 0.236755 0.406198
10 1 0.864565 0.991153 0.58285
11 1 0.541086 0.428142 0.294303
12 1 0.155982 0.342401 0.893809
13 1 0.364398 0.247995 0.986049
14 1 0.513548 0.52239 0.485017
15 1 0.752578 0.169586 0.961264
16 1 0.187019 0.953907 0.373992
17 1 0.46296 0.653628 0.17072
18 1 0.523277 0.503278 0.375254
19 1 0.109068 0.362432 0.00234415
20 1 0.568212 0.845867 0.955661
21 1 0.610632 0.433799 0.382513
ITEM: TIMESTEP
31
ITEM: NUMBER OF ATOMS
21
ITEM: BOX BOUNDS ff ff ff
-5.0000000000000000e+00 5.0000000000000000e+00
-5.0000000000000000e+00 5.0000000000000000e+00
-5.0000000000000000e+00 5.0000000000000000e+00
ITEM: ATOMS id type xs ys zs
1 1 0.0152409 0.672673 0.168515
2 1 0.481589 0.310504 0.0904197
3 1 0.762408 0.455449 0.885287
4 1 0.350661 0.652347 0.167882
5 1 0.866149 0.662093 0.249573
6 1 0.015723 0.274443 0.741362
7 1 0.613886 0.53219 0.43522
8 1 0.578444 0.238677 0.906615
9 1 0.158035 0.236764 0.406202
10 1 0.864563 0.99115 0.582849
11 1 0.541704 0.428336 0.294964
12 1 0.155888 0.342235 0.89362
13 1 0.364517 0.248043 0.9859
14 1 0.5136 0.521137 0.484759
15 1 0.751919 0.169888 0.961047
16 1 0.18702 0.953895 0.373986
17 1 0.463294 0.653469 0.170883
18 1 0.522951 0.504392 0.375074
19 1 0.109077 0.362442 0.00235653
20 1 0.568213 0.845864 0.955659
21 1 0.609763 0.433301 0.382902
ITEM: TIMESTEP
32
ITEM: NUMBER OF ATOMS
21
ITEM: BOX BOUNDS ff ff ff
-5.0000000000000000e+00 5.0000000000000000e+00
-5.0000000000000000e+00 5.0000000000000000e+00
-5.0000000000000000e+00 5.0000000000000000e+00
ITEM: ATOMS id type xs ys zs
1 1 0.0154631 0.67262 0.168513
2 1 0.481908 0.311481 0.0918657
3 1 0.762061 0.454779 0.885382
4 1 0.351289 0.651968 0.168262
5 1 0.865862 0.661951 0.249706
6 1 0.0176725 0.27535 0.743351
7 1 0.613687 0.535169 0.427909
8 1 0.582275 0.236914 0.909064
9 1 0.158075 0.236836 0.406238
10 1 0.86455 0.991125 0.582842
11 1 0.543062 0.4303 0.296382
12 1 0.155093 0.340838 0.892023
13 1 0.36551 0.24844 0.984651
14 1 0.51746 0.511137 0.483272
15 1 0.746303 0.172456 0.959199
16 1 0.187035 0.9538 0.37393
17 1 0.463423 0.652099 0.172186
18 1 0.523025 0.510772 0.370514
19 1 0.10915 0.362531 0.00246046
20 1 0.568226 0.845837 0.95564
21 1 0.603515 0.432889 0.391684
ITEM: TIMESTEP
33
ITEM: NUMBER OF ATOMS
21
ITEM: BOX BOUNDS ff ff ff
-5.0000000000000000e+00 5.0000000000000000e+00
-5.0000000000000000e+00 5.0000000000000000e+00
-5.0000000000000000e+00 5.0000000000000000e+00
ITEM: ATOMS id type xs ys zs
1 1 0.0156818 0.672567 0.168511