ITEM: TIMESTEP
0
ITEM: NUMBER OF ATOMS
13
ITEM: BOX BOUNDS pp pp pp
-5.0000000000000000e+00 5.0000000000000000e+00
-5.0000000000000000e+00 5.0000000000000000e+00
-5.0000000000000000e+00 5.0000000000000000e+00
ITEM: ATOMS id type xs ys zs
1 1 0.38266 0.366234 0.289501
2 1 0.636731 0.530842 0.855866
3 1 0.535471 0.66487 0.466025
4 1 0.484417 0.588545 0.680346
5 1 0.579978 0.691423 0.745205
6 1 0.666499 0.851438 0.121202
7 1 0.0391497 0.988612 0.608519
8 1 0.378446 0.549738 0.453452
9 1 0.170326 0.661939 0.212038
10 1 0.723859 0.901373 0.376407
11 1 0.279617 0.523655 0.0742873
12 1 0.546973 0.967323 0.800847
13 1 0.841804 0.196455 0.819147
ITEM: TIMESTEP
10
ITEM: NUMBER OF ATOMS
13
ITEM: BOX BOUNDS pp pp pp
-5.0000000000000000e+00 5.0000000000000000e+00
-5.0000000000000000e+00 5.0000000000000000e+00
-5.0000000000000000e+00 5.0000000000000000e+00
ITEM: ATOMS id type xs ys zs
1 1 0.381967 0.371654 0.291592
2 1 0.620249 0.556226 0.830602
3 1 0.500446 0.637781 0.472654
4 1 0.506487 0.604225 0.688202
5 1 0.573483 0.653428 0.749384
6 1 0.666946 0.851909 0.123837
7 1 0.0387978 0.988763 0.608656
8 1 0.414229 0.572297 0.456112
9 1 0.176699 0.654252 0.205303
10 1 0.722712 0.900103 0.373845
11 1 0.274821 0.529995 0.0830258
12 1 0.547432 0.96563 0.800715
13 1 0.841662 0.196184 0.818915
ITEM: TIMESTEP
20
ITEM: NUMBER OF ATOMS
13
ITEM: BOX BOUNDS pp pp pp
-5.0000000000000000e+00 5.0000000000000000e+00
-5.0000000000000000e+00 5.0000000000000000e+00
-5.0000000000000000e+00 5.0000000000000000e+00
ITEM: ATOMS id type xs ys zs
1 1 0.381846 0.372884 0.29197
2 1 0.613386 0.563942 0.820647
3 1 0.501423 0.638113 0.476436
4 1 0.507132 0.600876 0.686746
5 1 0.579229 0.649784 0.756694
6 1 0.667068 0.852035 0.124536
7 1 0.0387128 0.988801 0.60869
8 1 0.413595 0.570878 0.455602
9 1 0.179157 0.651234 0.20254
10 1 0.722451 0.899825 0.373142
11 1 0.272758 0.532676 0.0862785
12 1 0.547537 0.965288 0.800706
13 1 0.841633 0.196111 0.818856
ITEM: TIMESTEP
30
ITEM: NUMBER OF ATOMS
13
ITEM: BOX BOUNDS pp pp pp
-5.0000000000000000e+00 5.0000000000000000e+00
-5.0000000000000000e+00 5.0000000000000000e+00
-5.0000000000000000e+00 5.0000000000000000e+00
ITEM: ATOMS id type xs ys zs
1 1 0.38151 0.377633 0.293064
2 1 0.584562 0.562653 0.787302
3 1 0.50146 0.634914 0.491542
4 1 0.526419 0.583559 0.69986
5 1 0.58572 0.671503 0.756898
6 1 0.667634 0.852612 0.127676
7 1 0.0383675 0.988957 0.608837
8 1 0.41573 0.569503 0.457574
9 1 0.196882 0.629176 0.181798
10 1 0.721438 0.898792 0.369912
11 1 0.256706 0.553293 0.109035
12 1 0.547965 0.964073 0.800738
13 1 0.841536 0.19578 0.818607
ITEM: TIMESTEP
40
ITEM: NUMBER OF ATOMS
13
ITEM: BOX BOUNDS pp pp pp
-5.0000000000000000e+00 5.0000000000000000e+00
-5.0000000000000000e+00 5.0000000000000000e+00
-5.0000000000000000e+00 5.0000000000000000e+00
ITEM: ATOMS id type xs ys zs
1 1 0.381419 0.378635 0.29335
2 1 0.586063 0.561706 0.789596
3 1 0.501167 0.633704 0.494409
4 1 0.527074 0.588352 0.69714
5 1 0.582713 0.668507 0.753461
6 1 0.667775 0.852754 0.128424
7 1 0.0383015 0.988989 0.608867
8 1 0.41668 0.569607 0.457944
9 1 0.199343 0.626126 0.179088
10 1 0.721218 0.898575 0.369153
11 1 0.2546 0.556016 0.112128
12 1 0.548058 0.963764 0.800726
13 1 0.841519 0.195713 0.818558
ITEM: TIMESTEP
50
ITEM: NUMBER OF ATOMS
13
ITEM: BOX BOUNDS pp pp pp
-5.0000000000000000e+00 5.0000000000000000e+00
-5.0000000000000000e+00 5.0000000000000000e+00
-5.0000000000000000e+00 5.0000000000000000e+00
ITEM: ATOMS id type xs ys zs
1 1 0.380099 0.393143 0.297477
2 1 0.569063 0.563007 0.759682
3 1 0.499446 0.609942 0.555404
4 1 0.532737 0.599783 0.66069
5 1 0.574241 0.671541 0.736349
6 1 0.669953 0.854927 0.139865
7 1 0.0373593 0.98944 0.609304
8 1 0.435371 0.573875 0.471359
9 1 0.20131 0.62463 0.180755
10 1 0.717923 0.895361 0.357556
11 1 0.257775 0.552732 0.116031
12 1 0.549371 0.959314 0.800521
13 1 0.841281 0.194752 0.817849
ITEM: TIMESTEP
60
ITEM: NUMBER OF ATOMS
13
ITEM: BOX BOUNDS pp pp pp
-5.0000000000000000e+00 5.0000000000000000e+00
-5.0000000000000000e+00 5.0000000000000000e+00
-5.0000000000000000e+00 5.0000000000000000e+00
ITEM: ATOMS id type xs ys zs
1 1 0.379097 0.400697 0.29872
2 1 0.569861 0.56409 0.759823
3 1 0.504724 0.621637 0.554881
4 1 0.526126 0.589686 0.661387
5 1 0.569147 0.671108 0.722902
6 1 0.672607 0.857306 0.152595
7 1 0.0368923 0.989687 0.609557
8 1 0.439291 0.570406 0.480241
9 1 0.20241 0.623628 0.18156
10 1 0.714864 0.892619 0.344828
11 1 0.259761 0.550584 0.118758
12 1 0.549954 0.956766 0.800122
13 1 0.841195 0.194234 0.817469
ITEM: TIMESTEP
70
ITEM: NUMBER OF ATOMS
13
ITEM: BOX BOUNDS pp pp pp
-5.0000000000000000e+00 5.0000000000000000e+00
-5.0000000000000000e+00 5.0000000000000000e+00
-5.0000000000000000e+00 5.0000000000000000e+00
ITEM: ATOMS id type xs ys zs
1 1 0.376893 0.415767 0.300847
2 1 0.566912 0.575095 0.747729
3 1 0.518584 0.642905 0.575872
4 1 0.50814 0.56296 0.652446
5 1 0.554045 0.662637 0.679737
6 1 0.681501 0.86498 0.19445
7 1 0.0359748 0.990181 0.610066
8 1 0.458094 0.571003 0.515049
9 1 0.204717 0.621477 0.183128
10 1 0.705171 0.884217 0.303017
11 1 0.26379 0.546242 0.124507
12 1 0.551074 0.951777 0.79928
13 1 0.841033 0.193206 0.816715
ITEM: TIMESTEP
80
ITEM: NUMBER OF ATOMS
13
ITEM: BOX BOUNDS pp pp pp
-5.0000000000000000e+00 5.0000000000000000e+00
-5.0000000000000000e+00 5.0000000000000000e+00
-5.0000000000000000e+00 5.0000000000000000e+00
ITEM: ATOMS id type xs ys zs
1 1 0.376182 0.417191 0.300151
2 1 0.561762 0.568967 0.739146
3 1 0.523998 0.652025 0.57099
4 1 0.506057 0.567184 0.64206
5 1 0.550517 0.663221 0.679239
6 1 0.681533 0.865009 0.194727
7 1 0.0358924 0.990238 0.610129
8 1 0.46326 0.563327 0.538946
9 1 0.205016 0.621167 0.183326
10 1 0.705072 0.884111 0.3028
11 1 0.264482 0.545499 0.125561
12 1 0.551133 0.951407 0.799133
13 1 0.841026 0.193102 0.816636
ITEM: TIMESTEP
90
ITEM: NUMBER OF ATOMS
13
ITEM: BOX BOUNDS pp pp pp
-5.0000000000000000e+00 5.0000000000000000e+00
-5.0000000000000000e+00 5.0000000000000000e+00
-5.0000000000000000e+00 5.0000000000000000e+00
ITEM: ATOMS id type xs ys zs
1 1 0.356704 0.451167 0.279024
2 1 0.583589 0.585025 0.699286
3 1 0.559103 0.620198 0.59043
4 1 0.484508 0.563785 0.649949
5 1 0.511569 0.668365 0.680777
6 1 0.680991 0.864628 0.195321
7 1 0.033958 0.991557 0.611593
8 1 0.463431 0.582063 0.541215
9 1 0.213643 0.611789 0.18696
10 1 0.704007 0.882662 0.303696
11 1 0.281086 0.527911 0.154259
12 1 0.552449 0.942648 0.795565
13 1 0.840891 0.19065 0.81477
ITEM: TIMESTEP
100
ITEM: NUMBER OF ATOMS
13
ITEM: BOX BOUNDS pp pp pp
-5.0000000000000000e+00 5.0000000000000000e+00
-5.0000000000000000e+00 5.0000000000000000e+00
-5.0000000000000000e+00 5.0000000000000000e+00
ITEM: ATOMS id type xs ys zs
1 1 0.342817 0.465621 0.257786
2 1 0.583795 0.587569 0.699277
3 1 0.563383 0.616558 0.590174
4 1 0.4852 0.558134 0.651713
5 1 0.507201 0.667132 0.674085
6 1 0.680974 0.864615 0.195341
7 1 0.0338891 0.991605 0.611646
8 1 0.462575 0.590368 0.546275
9 1 0.218591 0.605881 0.18654
10 1 0.703977 0.882617 0.303721
11 1 0.290174 0.519485 0.176165
12 1 0.552458 0.942297 0.795419
13 1 0.840897 0.190565 0.814703
ITEM: TIMESTEP
110
ITEM: NUMBER OF ATOMS
13
ITEM: BOX BOUNDS pp pp pp
-5.0000000000000000e+00 5.0000000000000000e+00
-5.0000000000000000e+00 5.0000000000000000e+00
-5.0000000000000000e+00 5.0000000000000000e+00
ITEM: ATOMS id type xs ys zs
1 1 0.341139 0.467928 0.258949
2 1 0.580242 0.595771 0.700922
3 1 0.569253 0.605319 0.589932
4 1 0.49216 0.548764 0.650369
5 1 0.498572 0.659825 0.656634
6 1 0.68095 0.864597 0.195365
7 1 0.0337988 0.991668 0.611717
8 1 0.461892 0.610515 0.563549
9 1 0.220211 0.604257 0.188956
10 1 0.703937 0.882558 0.303756
11 1 0.290397 0.518918 0.172841
12 1 0.552473 0.941874 0.795239
13 1 0.840906 0.190454 0.814615
ITEM: TIMESTEP
120
ITEM: NUMBER OF ATOMS
13
ITEM: BOX BOUNDS pp pp pp
-5.0000000000000000e+00 5.0000000000000000e+00
-5.0000000000000000e+00 5.0000000000000000e+00
-5.0000000000000000e+00 5.0000000000000000e+00
ITEM: ATOMS id type xs ys zs
1 1 0.340843 0.468304 0.259011
2 1 0.579879 0.596554 0.701197
3 1 0.56954 0.604298 0.589939
4 1 0.492874 0.548076 0.649973
5 1 0.498721 0.660026 0.656956
6 1 0.680947 0.864594 0.195368
7 1 0.0337884 0.991675 0.611725
8 1 0.461103 0.611284 0.563329
9 1 0.220305 0.604193 0.189344
10 1 0.703932 0.882552 0.30376
11 1 0.290615 0.518618 0.172416
12 1 0.552475 0.941831 0.795221
13 1 0.840907 0.190441 0.814605
ITEM: TIMESTEP
130
ITEM: NUMBER OF ATOMS
13
ITEM: BOX BOUNDS pp pp pp
-5.0000000000000000e+00 5.0000000000000000e+00
-5.0000000000000000e+00 5.0000000000000000e+00
-5.0000000000000000e+00 5.0000000000000000e+00
ITEM: ATOMS id type xs ys zs
1 1 0.313108 0.502417 0.257167
2 1 0.580635 0.598013 0.702483
3 1 0.571405 0.604363 0.588054
4 1 0.491866 0.546391 0.650396
5 1 0.497667 0.662082 0.6569
6 1 0.680741 0.864437 0.195583
7 1 0.0329917 0.992228 0.612349
8 1 0.460355 0.612855 0.562747
9 1 0.244103 0.57929 0.21679
10 1 0.703579 0.882034 0.304065
11 1 0.295838 0.510321 0.148697
12 1 0.552655 0.938558 0.793789
13 1 0.840987 0.189459 0.813824
ITEM: TIMESTEP
140
ITEM: NUMBER OF ATOMS
13
ITEM: BOX BOUNDS pp pp pp
-5.0000000000000000e+00 5.0000000000000000e+00
-5.0000000000000000e+00 5.0000000000000000e+00
-5.0000000000000000e+00 5.0000000000000000e+00
ITEM: ATOMS id type xs ys zs
1 1 0.3134 0.502228 0.258044
2 1 0.57969 0.597578 0.701126
3 1 0.569615 0.604777 0.589801
4 1 0.492879 0.548733 0.649909
5 1 0.49866 0.66082 0.656617
6 1 0.680732 0.86443 0.195592
7 1 0.032958 0.992251 0.612376
8 1 0.46107 0.611955 0.563095
9 1 0.243531 0.580048 0.217313
10 1 0.703564 0.882012 0.304078
11 1 0.296179 0.509785 0.147376
12 1 0.55266 0.938413 0.793725
13 1 0.840992 0.189418 0.813791
ITEM: TIMESTEP
150
ITEM: NUMBER OF ATOMS
13
ITEM: BOX BOUNDS pp pp pp
-5.0000000000000000e+00 5.0000000000000000e+00
-5.0000000000000000e+00 5.0000000000000000e+00
-5.0000000000000000e+00 5.0000000000000000e+00
ITEM: ATOMS id type xs ys zs
1 1 0.320485 0.507894 0.264878
2 1 0.578479 0.606745 0.70063
3 1 0.56936 0.611617 0.588906
4 1 0.491853 0.557359 0.649769
5 1 0.498265 0.669524 0.653337
6 1 0.678547 0.862758 0.197893
7 1 0.0246076 0.998112 0.618987
8 1 0.460746 0.617992 0.560677
9 1 0.247274 0.581931 0.222676
10 1 0.699854 0.876715 0.30723
11 1 0.300254 0.510286 0.154515
12 1 0.553876 0.902213 0.777725
13 1 0.842329 0.179303 0.805621
ITEM: TIMESTEP
160
ITEM: NUMBER OF ATOMS
13
ITEM: BOX BOUNDS pp pp pp
-5.0000000000000000e+00 5.0000000000000000e+00
-5.0000000000000000e+00 5.0000000000000000e+00
-5.0000000000000000e+00 5.0000000000000000e+00
ITEM: ATOMS id type xs ys zs
1 1 0.325801 0.512398 0.270019
2 1 0.577435 0.614526 0.70008
3 1 0.569216 0.616914 0.58819
4 1 0.490917 0.564283 0.649795
5 1 0.497851 0.676718 0.650982
6 1 0.676881 0.86147 0.199737
7 1 0.0180775 0.00271865 0.624176
8 1 0.461175 0.623198 0.559721
9 1 0.250225 0.583315 0.226954
10 1 0.696977 0.872623 0.309616
11 1 0.303464 0.510608 0.160011
12 1 0.554408 0.872232 0.764324
13 1 0.843504 0.171443 0.799238
ITEM: TIMESTEP
170
ITEM: NUMBER OF ATOMS
13
ITEM: BOX BOUNDS pp pp pp
-5.0000000000000000e+00 5.0000000000000000e+00
-5.0000000000000000e+00 5.0000000000000000e+00
-5.0000000000000000e+00 5.0000000000000000e+00
ITEM: ATOMS id type xs ys zs
1 1 0.326735 0.513308 0.271013
2 1 0.578238 0.62103 0.701986
3 1 0.569571 0.621685 0.590643
4 1 0.491201 0.571651 0.653166
5 1 0.5 0.683471 0.652308
6 1 0.676608 0.861161 0.20024
7 1 0.0158292 0.00453507 0.626158
8 1 0.461692 0.628946 0.562263
9 1 0.250796 0.583556 0.227778
10 1 0.696353 0.871815 0.310221
11 1 0.30409 0.510736 0.161213
12 1 0.549619 0.841328 0.748762
13 1 0.845197 0.169227 0.79709
ITEM: TIMESTEP
180
ITEM: NUMBER OF ATOMS
13
ITEM: BOX BOUNDS pp pp pp
-5.0000000000000000e+00 5.0000000000000000e+00
-5.0000000000000000e+00 5.0000000000000000e+00
-5.0000000000000000e+00 5.0000000000000000e+00
ITEM: ATOMS id type xs ys zs
1 1 0.326436 0.513918 0.270521
2 1 0.58126 0.62753 0.705481
3 1 0.571019 0.625911 0.59431
4 1 0.49181 0.579147 0.658528
5 1 0.501939 0.69383 0.65481
6 1 0.676553 0.861082 0.200474
7 1 0.0151368 0.00510941 0.626781
8 1 0.46194 0.6388 0.566457
9 1 0.251607 0.582901 0.227923
10 1 0.696163 0.871585 0.310324
11 1 0.304109 0.511117 0.162296
12 1 0.542182 0.802951 0.728514
13 1 0.845776 0.168567 0.796424
ITEM: TIMESTEP
190
ITEM: NUMBER OF ATOMS
13
ITEM: BOX BOUNDS pp pp pp
-5.0000000000000000e+00 5.0000000000000000e+00
-5.0000000000000000e+00 5.0000000000000000e+00
-5.0000000000000000e+00 5.0000000000000000e+00
ITEM: ATOMS id type xs ys zs
1 1 0.327114 0.513689 0.271509
2 1 0.576808 0.650239 0.707849
3 1 0.570199 0.631159 0.598425
4 1 0.494296 0.586945 0.662616
5 1 0.493694 0.695538 0.651
6 1 0.676495 0.861019 0.200497
7 1 0.0146892 0.00548288 0.627185
8 1 0.463728 0.640004 0.566281
9 1 0.250978 0.583734 0.228177
10 1 0.696062 0.871449 0.310529
11 1 0.304374 0.51072 0.161479
12 1 0.551331 0.764325 0.721304
13 1 0.846161 0.168145 0.795993
ITEM: TIMESTEP
200
ITEM: NUMBER OF ATOMS
13
ITEM: BOX BOUNDS pp pp pp
-5.0000000000000000e+00 5.0000000000000000e+00
-5.0000000000000000e+00 5.0000000000000000e+00
-5.0000000000000000e+00 5.0000000000000000e+00
ITEM: ATOMS id type xs ys zs
1 1 0.327196 0.513689 0.271495
2 1 0.573962 0.649462 0.709994
3 1 0.570536 0.640009 0.598759
4 1 0.493348 0.58829 0.663117
5 1 0.491941 0.699807 0.650644
6 1 0.67648 0.860998 0.200534
7 1 0.0145208 0.00562376 0.627338
8 1 0.463863 0.632075 0.565012
9 1 0.251002 0.583737 0.228133
10 1 0.696019 0.871395 0.310579
11 1 0.304382 0.510795 0.16169
12 1 0.556371 0.758581 0.719717
13 1 0.846309 0.167987 0.795831
ITEM: TIMESTEP
210
ITEM: NUMBER OF ATOMS
13
ITEM: BOX BOUNDS pp pp pp
-5.0000000000000000e+00 5.0000000000000000e+00
-5.0000000000000000e+00 5.0000000000000000e+00
-5.0000000000000000e+00 5.0000000000000000e+00
ITEM: ATOMS id type xs ys zs
1 1 0.327658 0.514143 0.271976
2 1 0.560464 0.644698 0.723872
3 1 0.569681 0.656916 0.610702
4 1 0.502247 0.582149 0.653875
5 1 0.475614 0.689241 0.66774
6 1 0.676339 0.860808 0.200903
7 1 0.0129569 0.00693278 0.628755
8 1 0.470389 0.643977 0.565851
9 1 0.251269 0.583902 0.228524
10 1 0.69562 0.870897 0.311022
11 1 0.304696 0.510881 0.162224
12 1 0.571309 0.751383 0.68307
13 1 0.847688 0.166521 0.794328
ITEM: TIMESTEP
220
ITEM: NUMBER OF ATOMS
13
ITEM: BOX BOUNDS pp pp pp
-5.0000000000000000e+00 5.0000000000000000e+00
-5.0000000000000000e+00 5.0000000000000000e+00
-5.0000000000000000e+00 5.0000000000000000e+00
ITEM: ATOMS id type xs ys zs
1 1 0.327686 0.514156 0.272024
2 1 0.561647 0.644847 0.723751
3 1 0.570345 0.659829 0.612983
4 1 0.501214 0.581607 0.653882
5 1 0.475927 0.690016 0.667385
6 1 0.676333 0.860801 0.200919
7 1 0.0128886 0.00699061 0.628817
8 1 0.470321 0.643825 0.565811
9 1 0.251259 0.583932 0.228552
10 1 0.695603 0.870877 0.311042
11 1 0.304715 0.510865 0.162198
12 1 0.570242 0.748246 0.681215
13 1 0.847749 0.166457 0.794262
ITEM: TIMESTEP
230
ITEM: NUMBER OF ATOMS
13
ITEM: BOX BOUNDS pp pp pp
-5.0000000000000000e+00 5.0000000000000000e+00
-5.0000000000000000e+00 5.0000000000000000e+00
-5.0000000000000000e+00 5.0000000000000000e+00
ITEM: ATOMS id type xs ys zs
1 1 0.327756 0.514225 0.272095
2 1 0.561674 0.644853 0.723694
3 1 0.570374 0.659736 0.61297
4 1 0.501169 0.58163 0.653832
5 1 0.475882 0.689934 0.66742
6 1 0.676311 0.860771 0.200987
7 1 0.0126025 0.0072332 0.629079
8 1 0.470415 0.643981 0.565752
9 1 0.2513 0.583958 0.22861
10 1 0.695534 0.870793 0.311123
11 1 0.304763 0.51088 0.162275
12 1 0.570144 0.748264 0.681022
13 1 0.848005 0.166189 0.793986
ITEM: TIMESTEP
240
ITEM: NUMBER OF ATOMS
13
ITEM: BOX BOUNDS pp pp pp
-5.0000000000000000e+00 5.0000000000000000e+00
-5.0000000000000000e+00 5.0000000000000000e+00
-5.0000000000000000e+00 5.0000000000000000e+00
ITEM: ATOMS id type xs ys zs
1 1 0.328073 0.514531 0.272415
2 1 0.561677 0.644854 0.723437
3 1 0.570437 0.659819 0.612768
4 1 0.501075 0.581632 0.653586
5 1 0.475817 0.689952 0.667035
6 1 0.676212 0.860635 0.201291
7 1 0.0112883 0.00835122 0.630282
8 1 0.470365 0.64397 0.565515
9 1 0.251478 0.584081 0.228869
10 1 0.695222 0.870418 0.311485
11 1 0.304978 0.510945 0.16262
12 1 0.570122 0.748302 0.680823
13 1 0.849185 0.164957 0.792717
ITEM: TIMESTEP
250
ITEM: NUMBER OF ATOMS
13
ITEM: BOX BOUNDS pp pp pp
-5.0000000000000000e+00 5.0000000000000000e+00
-5.0000000000000000e+00 5.0000000000000000e+00
-5.0000000000000000e+00 5.0000000000000000e+00
ITEM: ATOMS id type xs ys zs
1 1 0.33942 0.525781 0.283736
2 1 0.559512 0.645787 0.714724
3 1 0.56978 0.660908 0.604078
4 1 0.500042 0.582469 0.64419
5 1 0.47462 0.690787 0.656758
6 1 0.672657 0.855734 0.21268
7 1 0.959778 0.0527099 0.677837
8 1 0.470286 0.644313 0.555435
9 1 0.258106 0.588445 0.238356
10 1 0.68382 0.856759 0.324339
11 1 0.312857 0.513334 0.175398
12 1 0.569248 0.748988 0.672496
13 1 0.895804 0.116431 0.742818
ITEM: TIMESTEP
260
ITEM: NUMBER OF ATOMS
13
ITEM: BOX BOUNDS pp pp pp
-5.0000000000000000e+00 5.0000000000000000e+00
-5.0000000000000000e+00 5.0000000000000000e+00
-5.0000000000000000e+00 5.0000000000000000e+00
ITEM: ATOMS id type xs ys zs
1 1 0.339474 0.525832 0.283803
2 1 0.559561 0.645729 0.714686
3 1 0.569891 0.660414 0.604101
4 1 0.500011 0.582474 0.644036
5 1 0.474657 0.690804 0.657134
6 1 0.67264 0.855713 0.212722
7 1 0.960053 0.0524172 0.677543
8 1 0.470596 0.644776 0.555472
9 1 0.258138 0.588457 0.238394
10 1 0.683764 0.856695 0.324416
11 1 0.312886 0.513351 0.17546
12 1 0.568746 0.749078 0.671972
13 1 0.895511 0.116708 0.743104
ITEM: TIMESTEP
270
ITEM: NUMBER OF ATOMS
13
ITEM: BOX BOUNDS pp pp pp
-5.0000000000000000e+00 5.0000000000000000e+00
-5.0000000000000000e+00 5.0000000000000000e+00
-5.0000000000000000e+00 5.0000000000000000e+00
ITEM: ATOMS id type xs ys zs
1 1 0.339705 0.526079 0.28407
2 1 0.559479 0.645777 0.714513
3 1 0.569846 0.660449 0.603898
4 1 0.50004 0.582487 0.643789
5 1 0.474641 0.690807 0.656896
6 1 0.672565 0.85561 0.212995
7 1 0.960001 0.0523823 0.67753
8 1 0.470567 0.64478 0.555223
9 1 0.258272 0.588543 0.238614
10 1 0.683492 0.856388 0.32471
11 1 0.313065 0.513395 0.175765
12 1 0.568775 0.749083 0.67176
13 1 0.895482 0.116668 0.74308
ITEM: TIMESTEP
280
ITEM: NUMBER OF ATOMS
13
ITEM: BOX BOUNDS pp pp pp
-5.0000000000000000e+00 5.0000000000000000e+00
-5.0000000000000000e+00 5.0000000000000000e+00
-5.0000000000000000e+00 5.0000000000000000e+00
ITEM: ATOMS id type xs ys zs
1 1 0.341941 0.528477 0.286677
2 1 0.559117 0.645939 0.712441
3 1 0.569773 0.660648 0.601833
4 1 0.499824 0.582654 0.641631
5 1 0.474416 0.691066 0.65453
6 1 0.671837 0.854616 0.215665
7 1 0.959591 0.0519593 0.677309
8 1 0.470581 0.644812 0.552963
9 1 0.259585 0.58937 0.240752
10 1 0.680844 0.853406 0.327554
11 1 0.314799 0.513833 0.178742
12 1 0.568512 0.749298 0.669808
13 1 0.895112 0.116369 0.742939
ITEM: TIMESTEP
290
ITEM: NUMBER OF ATOMS
13
ITEM: BOX BOUNDS pp pp pp
-5.0000000000000000e+00 5.0000000000000000e+00
-5.0000000000000000e+00 5.0000000000000000e+00
-5.0000000000000000e+00 5.0000000000000000e+00
ITEM: ATOMS id type xs ys zs
1 1 0.342968 0.529586 0.287914
2 1 0.558783 0.646126 0.711591
3 1 0.569676 0.660793 0.600869
4 1 0.499898 0.582684 0.640526
5 1 0.474303 0.691141 0.653465
6 1 0.671502 0.854159 0.21693
7 1 0.959403 0.0517947 0.67723
8 1 0.470517 0.64487 0.55191
9 1 0.260179 0.589752 0.241751
10 1 0.679603 0.852013 0.328876
11 1 0.315611 0.514031 0.180133
12 1 0.568514 0.749271 0.668786
13 1 0.894971 0.116229 0.742863
ITEM: TIMESTEP
300
ITEM: NUMBER OF ATOMS
13
ITEM: BOX BOUNDS pp pp pp
-5.0000000000000000e+00 5.0000000000000000e+00
-5.0000000000000000e+00 5.0000000000000000e+00
-5.0000000000000000e+00 5.0000000000000000e+00
ITEM: ATOMS id type xs ys zs
1 1 0.392218 0.587905 0.346622
2 1 0.550335 0.650913 0.660736
3 1 0.567205 0.664706 0.54977
4 1 0.494612 0.586856 0.586704
5 1 0.467792 0.694896 0.596721
6 1 0.65248 0.827591 0.294992
7 1 0.949941 0.0430058 0.672845
8 1 0.472041 0.647941 0.494337
9 1 0.294404 0.608855 0.296723
10 1 0.615189 0.780504 0.388069
11 1 0.360937 0.526017 0.25909
12 1 0.561348 0.754006 0.617051
13 1 0.887428 0.109252 0.739184
ITEM: TIMESTEP
310
ITEM: NUMBER OF ATOMS
13
ITEM: BOX BOUNDS pp pp pp
-5.0000000000000000e+00 5.0000000000000000e+00
-5.0000000000000000e+00 5.0000000000000000e+00
-5.0000000000000000e+00 5.0000000000000000e+00
ITEM: ATOMS id type xs ys zs
1 1 0.41318 0.610454 0.38114
2 1 0.547678 0.6535 0.627379
3 1 0.566541 0.672939 0.516672
4 1 0.496469 0.590272 0.551941
5 1 0.465331 0.696634 0.565472
6 1 0.633687 0.803479 0.344546
7 1 0.946676 0.0404049 0.671658
8 1 0.469764 0.653796 0.46419
9 1 0.31561 0.619134 0.325616
10 1 0.582974 0.738356 0.430585
11 1 0.386628 0.537798 0.300081
12 1 0.55617 0.758906 0.585807
13 1 0.885221 0.106774 0.737757
ITEM: TIMESTEP
320
ITEM: NUMBER OF ATOMS
13
ITEM: BOX BOUNDS pp pp pp
-5.0000000000000000e+00 5.0000000000000000e+00
-5.0000000000000000e+00 5.0000000000000000e+00
-5.0000000000000000e+00 5.0000000000000000e+00
ITEM: ATOMS id type xs ys zs
1 1 0.416847 0.610839 0.387583
2 1 0.53288 0.658202 0.620411
3 1 0.579103 0.65854 0.515415
4 1 0.491783 0.593069 0.542046
5 1 0.474039 0.708467 0.542918
6 1 0.615041 0.782952 0.372351
7 1 0.946749 0.0402601 0.671526
8 1 0.491401 0.651788 0.450436
9 1 0.322299 0.625152 0.335167
10 1 0.541437 0.750508 0.4558
11 1 0.395535 0.540152 0.307936
12 1 0.573722 0.755653 0.563404
13 1 0.885094 0.106865 0.73785
ITEM: TIMESTEP
330
ITEM: NUMBER OF ATOMS
13
ITEM: BOX BOUNDS pp pp pp
-5.0000000000000000e+00 5.0000000000000000e+00
-5.0000000000000000e+00 5.0000000000000000e+00
-5.0000000000000000e+00 5.0000000000000000e+00
ITEM: ATOMS id type xs ys zs
1 1 0.410176 0.605251 0.394706
2 1 0.537445 0.661294 0.619361
3 1 0.58075 0.661998 0.515642
4 1 0.491814 0.596013 0.53768
5 1 0.476287 0.707215 0.537527
6 1 0.612661 0.775343 0.377618
7 1 0.946726 0.0402535 0.671525
8 1 0.498305 0.654246 0.440683
9 1 0.319548 0.622567 0.33035
10 1 0.544736 0.753203 0.463161
11 1 0.391541 0.540466 0.305061
12 1 0.570849 0.757752 0.571697
13 1 0.885091 0.106847 0.737832
ITEM: TIMESTEP
340
ITEM: NUMBER OF ATOMS
13
ITEM: BOX BOUNDS pp pp pp
-5.0000000000000000e+00 5.0000000000000000e+00
-5.0000000000000000e+00 5.0000000000000000e+00
-5.0000000000000000e+00 5.0000000000000000e+00
ITEM: ATOMS id type xs ys zs
1 1 0.41495 0.60351 0.426838
2 1 0.525785 0.643905 0.596721
3 1 0.577149 0.673513 0.499838
4 1 0.497474 0.599278 0.502094
5 1 0.469718 0.70495 0.521595
6 1 0.603192 0.723247 0.396386
7 1 0.946526 0.0403458 0.67164
8 1 0.502317 0.679377 0.41845
9 1 0.337701 0.630723 0.355081
10 1 0.537551 0.775565 0.468615
11 1 0.411642 0.549943 0.331276
12 1 0.556735 0.751439 0.576665
13 1 0.88519 0.106653 0.737644
ITEM: TIMESTEP
350
ITEM: NUMBER OF ATOMS
13
ITEM: BOX BOUNDS pp pp pp
-5.0000000000000000e+00 5.0000000000000000e+00
-5.0000000000000000e+00 5.0000000000000000e+00
-5.0000000000000000e+00 5.0000000000000000e+00
ITEM: ATOMS id type xs ys zs
1 1 0.410291 0.624308 0.443166
2 1 0.527875 0.641711 0.59087
3 1 0.578172 0.676665 0.497971
4 1 0.507006 0.591335 0.49412
5 1 0.465571 0.691937 0.513415
6 1 0.606081 0.718979 0.400288
7 1 0.946364 0.0404845 0.671785
8 1 0.50401 0.668721 0.411757
9 1 0.342699 0.636336 0.356388
10 1 0.528629 0.768524 0.462752
11 1 0.422463 0.565028 0.350742
12 1 0.541446 0.751934 0.572113
13 1 0.885323 0.106485 0.737477
ITEM: TIMESTEP
360
ITEM: NUMBER OF ATOMS
13
ITEM: BOX BOUNDS pp pp pp
-5.0000000000000000e+00 5.0000000000000000e+00
-5.0000000000000000e+00 5.0000000000000000e+00
-5.0000000000000000e+00 5.0000000000000000e+00
ITEM: ATOMS id type xs ys zs
1 1 0.401008 0.623967 0.456745
2 1 0.525662 0.638302 0.587732
3 1 0.573879 0.671151 0.493328
4 1 0.499811 0.58877 0.486615
5 1 0.463404 0.692797 0.514128
6 1 0.59908 0.712836 0.393223
7 1 0.946612 0.0401924 0.671498
8 1 0.498372 0.670257 0.411892
9 1 0.354442 0.639288 0.357367
10 1 0.524107 0.767118 0.457392
11 1 0.451731 0.582293 0.367466
12 1 0.542766 0.748721 0.567709
13 1 0.885055 0.106757 0.737747
ITEM: TIMESTEP
370
ITEM: NUMBER OF ATOMS
13
ITEM: BOX BOUNDS pp pp pp
-5.0000000000000000e+00 5.0000000000000000e+00
-5.0000000000000000e+00 5.0000000000000000e+00
-5.0000000000000000e+00 5.0000000000000000e+00
ITEM: ATOMS id type xs ys zs
1 1 0.395558 0.62574 0.460362
2 1 0.528457 0.633582 0.583759
3 1 0.569621 0.671305 0.48611
4 1 0.495614 0.591167 0.48629
5 1 0.461804 0.693727 0.51773
6 1 0.583509 0.713548 0.383833
7 1 0.946579 0.0401957 0.671507
8 1 0.483852 0.67405 0.411547
9 1 0.390856 0.652166 0.351675
10 1 0.521846 0.768386 0.459842
11 1 0.455724 0.568179 0.384753
12 1 0.547447 0.743676 0.56772
13 1 0.885062 0.106725 0.737716
ITEM: TIMESTEP
380
ITEM: NUMBER OF ATOMS
13
ITEM: BOX BOUNDS pp pp pp
-5.0000000000000000e+00 5.0000000000000000e+00
-5.0000000000000000e+00 5.0000000000000000e+00
-5.0000000000000000e+00 5.0000000000000000e+00
ITEM: ATOMS id type xs ys zs
1 1 0.3937 0.62657 0.459351
2 1 0.530921 0.634796 0.583752
3 1 0.569126 0.670738 0.485426
4 1 0.494717 0.588989 0.488022
5 1 0.461629 0.691852 0.518392
6 1 0.583559 0.715013 0.384393
7 1 0.946577 0.0401798 0.671495
8 1 0.485365 0.671623 0.412284
9 1 0.393743 0.656065 0.351645
10 1 0.518532 0.767065 0.459379
11 1 0.455397 0.568217 0.385549
12 1 0.547615 0.744614 0.565439
13 1 0.88505 0.106726 0.737716
ITEM: TIMESTEP
390
ITEM: NUMBER OF ATOMS
13
ITEM: BOX BOUNDS pp pp pp
-5.0000000000000000e+00 5.0000000000000000e+00
-5.0000000000000000e+00 5.0000000000000000e+00
-5.0000000000000000e+00 5.0000000000000000e+00
ITEM: ATOMS id type xs ys zs
1 1 0.393719 0.626925 0.459237
2 1 0.531171 0.634694 0.583689
3 1 0.569142 0.67067 0.485327
4 1 0.49445 0.589025 0.48814
5 1 0.461692 0.691715 0.518459
6 1 0.583581 0.715496 0.384428
7 1 0.946568 0.0401702 0.671489
8 1 0.485482 0.671461 0.412202
9 1 0.394086 0.655924 0.351379
10 1 0.518258 0.767064 0.459475
11 1 0.455037 0.567995 0.385883
12 1 0.547701 0.74459 0.565427
13 1 0.885043 0.10672 0.737709
ITEM: TIMESTEP
400
ITEM: NUMBER OF ATOMS
13
ITEM: BOX BOUNDS pp pp pp
-5.0000000000000000e+00 5.0000000000000000e+00
-5.0000000000000000e+00 5.0000000000000000e+00
-5.0000000000000000e+00 5.0000000000000000e+00
ITEM: ATOMS id type xs ys zs
1 1 0.393693 0.627022 0.459195
2 1 0.531234 0.634677 0.583693
3 1 0.569135 0.670663 0.485306
4 1 0.494408 0.589036 0.488174
5 1 0.461711 0.691709 0.518505
6 1 0.583529 0.715566 0.384431
7 1 0.946554 0.0401552 0.671479
8 1 0.485476 0.671461 0.412214
9 1 0.394163 0.65586 0.351266
10 1 0.518216 0.767066 0.459511
11 1 0.455012 0.567955 0.385942
12 1 0.547766 0.744567 0.56543
13 1 0.885033 0.106709 0.737698
ITEM: TIMESTEP
410
ITEM: NUMBER OF ATOMS
13
ITEM: BOX BOUNDS pp pp pp
-5.0000000000000000e+00 5.0000000000000000e+00
-5.0000000000000000e+00 5.0000000000000000e+00
-5.0000000000000000e+00 5.0000000000000000e+00
ITEM: ATOMS id type xs ys zs
1 1 0.39376 0.627151 0.459275
2 1 0.531357 0.634778 0.583763
3 1 0.569229 0.670737 0.485358
4 1 0.494471 0.58915 0.488258
5 1 0.461809 0.69181 0.518602
6 1 0.583587 0.715647 0.384487
7 1 0.94601 0.03957 0.671106
8 1 0.485534 0.671552 0.412291
9 1 0.394241 0.65591 0.351325
10 1 0.518297 0.767151 0.459583
11 1 0.455093 0.568037 0.386043
12 1 0.547915 0.744651 0.565479
13 1 0.884627 0.106304 0.737272
ITEM: TIMESTEP
420
ITEM: NUMBER OF ATOMS
13
ITEM: BOX BOUNDS pp pp pp
-5.0000000000000000e+00 5.0000000000000000e+00
-5.0000000000000000e+00 5.0000000000000000e+00
-5.0000000000000000e+00 5.0000000000000000e+00
ITEM: ATOMS id type xs ys zs
1 1 0.400311 0.635595 0.466983
2 1 0.540246 0.642888 0.58936
3 1 0.576582 0.677589 0.489952
4 1 0.501079 0.59671 0.495065
5 1 0.469951 0.699885 0.524869
6 1 0.589583 0.72178 0.388541
7 1 0.901403 0.992626 0.641337
8 1 0.491843 0.678344 0.418302
9 1 0.399756 0.662828 0.358535
10 1 0.525869 0.774202 0.46419
11 1 0.45991 0.574721 0.393783
12 1 0.557276 0.752428 0.569717
13 1 0.852121 0.0728521 0.702208
ITEM: TIMESTEP
430
ITEM: NUMBER OF ATOMS
13
ITEM: BOX BOUNDS pp pp pp
-5.0000000000000000e+00 5.0000000000000000e+00
-5.0000000000000000e+00 5.0000000000000000e+00
-5.0000000000000000e+00 5.0000000000000000e+00
ITEM: ATOMS id type xs ys zs
1 1 0.400962 0.635866 0.467782
2 1 0.54065 0.643629 0.58983
3 1 0.577196 0.678209 0.490424
4 1 0.501812 0.59731 0.495447
5 1 0.470545 0.700598 0.525216
6 1 0.590261 0.721872 0.388825
7 1 0.897771 0.988821 0.638934
8 1 0.492295 0.679007 0.418764
9 1 0.399816 0.663542 0.359556
10 1 0.526734 0.774796 0.464461
11 1 0.460523 0.5755 0.394123
12 1 0.55787 0.753153 0.570101
13 1 0.849496 0.0701456 0.699378
ITEM: TIMESTEP
440
ITEM: NUMBER OF ATOMS
13
ITEM: BOX BOUNDS pp pp pp
-5.0000000000000000e+00 5.0000000000000000e+00
-5.0000000000000000e+00 5.0000000000000000e+00
-5.0000000000000000e+00 5.0000000000000000e+00
ITEM: ATOMS id type xs ys zs
1 1 0.401005 0.63598 0.467818
2 1 0.540784 0.643717 0.589858
3 1 0.577289 0.678239 0.49044
4 1 0.501842 0.597372 0.495525
5 1 0.470634 0.700662 0.525265
6 1 0.590316 0.722008 0.38888
7 1 0.897194 0.988355 0.638697
8 1 0.492383 0.679035 0.418811
9 1 0.399935 0.663618 0.359586
10 1 0.526772 0.774863 0.464489
11 1 0.460549 0.57554 0.394223
12 1 0.558008 0.753224 0.570081
13 1 0.849218 0.0698344 0.699171
ITEM: TIMESTEP
450
ITEM: NUMBER OF ATOMS
13
ITEM: BOX BOUNDS pp pp pp
-5.0000000000000000e+00 5.0000000000000000e+00
-5.0000000000000000e+00 5.0000000000000000e+00
-5.0000000000000000e+00 5.0000000000000000e+00
ITEM: ATOMS id type xs ys zs
1 1 0.407169 0.643265 0.47292
2 1 0.549034 0.650526 0.593065
3 1 0.58418 0.683797 0.49258
4 1 0.507829 0.603796 0.500019
5 1 0.478237 0.70753 0.529033
6 1 0.595886 0.726477 0.390369
7 1 0.847441 0.950184 0.619528
8 1 0.498064 0.684623 0.422352
9 1 0.405212 0.669066 0.364085
10 1 0.534347 0.780686 0.466698
11 1 0.465331 0.581044 0.399564
12 1 0.567019 0.75955 0.572032
13 1 0.82618 0.0419032 0.680599
ITEM: TIMESTEP
460
ITEM: NUMBER OF ATOMS
13
ITEM: BOX BOUNDS pp pp pp
-5.0000000000000000e+00 5.0000000000000000e+00
-5.0000000000000000e+00 5.0000000000000000e+00
-5.0000000000000000e+00 5.0000000000000000e+00
ITEM: ATOMS id type xs ys zs
1 1 0.414841 0.650557 0.480053
2 1 0.557652 0.658935 0.596807
3 1 0.592605 0.690551 0.495627
4 1 0.516269 0.610795 0.504211