ITEM: TIMESTEP
0
ITEM: NUMBER OF ATOMS
11
ITEM: BOX BOUNDS ff ff ff
-5.0000000000000000e+00 5.0000000000000000e+00
-5.0000000000000000e+00 5.0000000000000000e+00
-5.0000000000000000e+00 5.0000000000000000e+00
ITEM: ATOMS id type xs ys zs
1 1 0.635838 0.537443 0.812079
2 1 0.617055 0.840037 0.499884
3 1 0.547372 0.676854 0.883547
4 1 0.773311 0.0372527 0.106246
5 1 0.674044 0.665762 0.46217
6 1 0.697967 0.72443 0.491375
7 1 0.54742 0.483142 0.169557
8 1 0.744814 0.0911437 0.852579
9 1 0.287338 0.296214 0.463032
10 1 0.172289 0.655955 0.642403
11 1 0.860903 0.195029 0.857528
ITEM: TIMESTEP
1
ITEM: NUMBER OF ATOMS
11
ITEM: BOX BOUNDS ff ff ff
-5.0000000000000000e+00 5.0000000000000000e+00
-5.0000000000000000e+00 5.0000000000000000e+00
-5.0000000000000000e+00 5.0000000000000000e+00
ITEM: ATOMS id type xs ys zs
1 1 0.635838 0.537444 0.812079
2 1 0.617056 0.840035 0.499884
3 1 0.547372 0.676854 0.883547
4 1 0.773311 0.0372527 0.106246
5 1 0.672006 0.660764 0.459682
6 1 0.700004 0.72943 0.493864
7 1 0.54742 0.483142 0.169557
8 1 0.744815 0.0911445 0.852579
9 1 0.287338 0.296214 0.463032
10 1 0.172289 0.655955 0.642403
11 1 0.860902 0.195029 0.857528
ITEM: TIMESTEP
2
ITEM: NUMBER OF ATOMS
11
ITEM: BOX BOUNDS ff ff ff
-5.0000000000000000e+00 5.0000000000000000e+00
-5.0000000000000000e+00 5.0000000000000000e+00
-5.0000000000000000e+00 5.0000000000000000e+00
ITEM: ATOMS id type xs ys zs
1 1 0.635836 0.537447 0.812081
2 1 0.617068 0.840018 0.499882
3 1 0.547374 0.676851 0.883545
4 1 0.773311 0.0372527 0.106246
5 1 0.669973 0.655781 0.457201
6 1 0.702025 0.73443 0.496346
7 1 0.54742 0.483142 0.169557
8 1 0.744822 0.0911509 0.852579
9 1 0.287338 0.296214 0.463032
10 1 0.172289 0.655955 0.642403
11 1 0.860895 0.195022 0.857527
ITEM: TIMESTEP
3
ITEM: NUMBER OF ATOMS
11
ITEM: BOX BOUNDS ff ff ff
-5.0000000000000000e+00 5.0000000000000000e+00
-5.0000000000000000e+00 5.0000000000000000e+00
-5.0000000000000000e+00 5.0000000000000000e+00
ITEM: ATOMS id type xs ys zs
1 1 0.635811 0.537488 0.812101
2 1 0.617248 0.839777 0.499869
3 1 0.5474 0.67681 0.883524
4 1 0.773311 0.0372528 0.106246
5 1 0.666247 0.646686 0.452667
6 1 0.70557 0.743765 0.500894
7 1 0.54742 0.483142 0.169558
8 1 0.74492 0.0912385 0.852583
9 1 0.287338 0.296214 0.463032
10 1 0.172289 0.655955 0.642403
11 1 0.860797 0.194935 0.857523
ITEM: TIMESTEP
4
ITEM: NUMBER OF ATOMS
11
ITEM: BOX BOUNDS ff ff ff
-5.0000000000000000e+00 5.0000000000000000e+00
-5.0000000000000000e+00 5.0000000000000000e+00
-5.0000000000000000e+00 5.0000000000000000e+00
ITEM: ATOMS id type xs ys zs
1 1 0.634788 0.539112 0.812906
2 1 0.625876 0.829777 0.499768
3 1 0.548429 0.675192 0.882677
4 1 0.77331 0.0372546 0.106247
5 1 0.666678 0.649134 0.453677
6 1 0.69649 0.751284 0.500004
7 1 0.547427 0.483153 0.169583
8 1 0.748831 0.0947436 0.852749
9 1 0.287342 0.296223 0.463032
10 1 0.172299 0.65595 0.642401
11 1 0.85688 0.19144 0.857355
ITEM: TIMESTEP
5
ITEM: NUMBER OF ATOMS
11
ITEM: BOX BOUNDS ff ff ff
-5.0000000000000000e+00 5.0000000000000000e+00
-5.0000000000000000e+00 5.0000000000000000e+00
-5.0000000000000000e+00 5.0000000000000000e+00
ITEM: ATOMS id type xs ys zs
1 1 0.634735 0.539196 0.812948
2 1 0.624671 0.831071 0.49975
3 1 0.548482 0.675108 0.882633
4 1 0.77331 0.0372546 0.106247
5 1 0.666763 0.649531 0.453845
6 1 0.697609 0.749592 0.499855
7 1 0.547427 0.483153 0.169584
8 1 0.749091 0.0949761 0.85276
9 1 0.287342 0.296223 0.463032
10 1 0.172299 0.65595 0.642401
11 1 0.85662 0.191208 0.857344
ITEM: TIMESTEP
6
ITEM: NUMBER OF ATOMS
11
ITEM: BOX BOUNDS ff ff ff
-5.0000000000000000e+00 5.0000000000000000e+00
-5.0000000000000000e+00 5.0000000000000000e+00
-5.0000000000000000e+00 5.0000000000000000e+00
ITEM: ATOMS id type xs ys zs
1 1 0.634531 0.53952 0.813109
2 1 0.623338 0.832398 0.499694
3 1 0.548687 0.674785 0.882465
4 1 0.77331 0.037255 0.106247
5 1 0.666968 0.650577 0.454283
6 1 0.698735 0.747213 0.499477
7 1 0.547428 0.483155 0.169588
8 1 0.750107 0.0958858 0.852803
9 1 0.287343 0.296225 0.463032
10 1 0.172301 0.655949 0.642401
11 1 0.855604 0.1903 0.857301
ITEM: TIMESTEP
7
ITEM: NUMBER OF ATOMS
11
ITEM: BOX BOUNDS ff ff ff
-5.0000000000000000e+00 5.0000000000000000e+00
-5.0000000000000000e+00 5.0000000000000000e+00
-5.0000000000000000e+00 5.0000000000000000e+00
ITEM: ATOMS id type xs ys zs
1 1 0.632612 0.542563 0.814626
2 1 0.622677 0.831636 0.499199
3 1 0.550616 0.671752 0.880882
4 1 0.773308 0.0372578 0.106248
5 1 0.666251 0.651966 0.454496
6 1 0.700081 0.746535 0.49979
7 1 0.547438 0.483171 0.169626
8 1 0.760098 0.104836 0.853228
9 1 0.287349 0.296239 0.463033
10 1 0.172316 0.655942 0.642399
11 1 0.845604 0.181366 0.856873
ITEM: TIMESTEP
8
ITEM: NUMBER OF ATOMS
11
ITEM: BOX BOUNDS ff ff ff
-5.0000000000000000e+00 5.0000000000000000e+00
-5.0000000000000000e+00 5.0000000000000000e+00
-5.0000000000000000e+00 5.0000000000000000e+00
ITEM: ATOMS id type xs ys zs
1 1 0.63221 0.5432 0.814946
2 1 0.623437 0.830535 0.499117
3 1 0.55102 0.671117 0.880551
4 1 0.773308 0.0372583 0.106248
5 1 0.665746 0.651158 0.454029
6 1 0.69982 0.748435 0.500344
7 1 0.54744 0.483173 0.169633
8 1 0.761567 0.106151 0.85329
9 1 0.28735 0.296242 0.463033
10 1 0.172319 0.655941 0.642398
11 1 0.844134 0.180053 0.85681
ITEM: TIMESTEP
9
ITEM: NUMBER OF ATOMS
11
ITEM: BOX BOUNDS ff ff ff
-5.0000000000000000e+00 5.0000000000000000e+00
-5.0000000000000000e+00 5.0000000000000000e+00
-5.0000000000000000e+00 5.0000000000000000e+00
ITEM: ATOMS id type xs ys zs
1 1 0.631679 0.544042 0.815368
2 1 0.623855 0.829751 0.499013
3 1 0.551553 0.670278 0.880115
4 1 0.773308 0.0372588 0.106248
5 1 0.665542 0.651326 0.454011
6 1 0.6996 0.74904 0.500472
7 1 0.547442 0.483177 0.169641
8 1 0.761664 0.10624 0.853294
9 1 0.287351 0.296244 0.463033
10 1 0.172322 0.655939 0.642398
11 1 0.844035 0.179968 0.856805
ITEM: TIMESTEP
10
ITEM: NUMBER OF ATOMS
11
ITEM: BOX BOUNDS ff ff ff
-5.0000000000000000e+00 5.0000000000000000e+00
-5.0000000000000000e+00 5.0000000000000000e+00
-5.0000000000000000e+00 5.0000000000000000e+00
ITEM: ATOMS id type xs ys zs
1 1 0.630048 0.546622 0.816666
2 1 0.623366 0.829281 0.498677
3 1 0.55319 0.667704 0.878778
4 1 0.773307 0.0372605 0.106249
5 1 0.665407 0.653131 0.454584
6 1 0.700205 0.747675 0.500255
7 1 0.547448 0.483186 0.169663
8 1 0.760259 0.104987 0.853234
9 1 0.287355 0.296253 0.463034
10 1 0.172332 0.655934 0.642397
11 1 0.845436 0.18123 0.856864
ITEM: TIMESTEP
11
ITEM: NUMBER OF ATOMS
11
ITEM: BOX BOUNDS ff ff ff
-5.0000000000000000e+00 5.0000000000000000e+00
-5.0000000000000000e+00 5.0000000000000000e+00
-5.0000000000000000e+00 5.0000000000000000e+00
ITEM: ATOMS id type xs ys zs
1 1 0.623727 0.556622 0.821702
2 1 0.622074 0.827088 0.497471
3 1 0.559531 0.657727 0.8736
4 1 0.773304 0.0372664 0.106251
5 1 0.66329 0.655222 0.454516
6 1 0.703548 0.747669 0.501597
7 1 0.547468 0.483219 0.169743
8 1 0.759621 0.104432 0.853204
9 1 0.287367 0.296283 0.463035
10 1 0.172364 0.655918 0.642392
11 1 0.846058 0.181816 0.856887
ITEM: TIMESTEP
12
ITEM: NUMBER OF ATOMS
11
ITEM: BOX BOUNDS ff ff ff
-5.0000000000000000e+00 5.0000000000000000e+00
-5.0000000000000000e+00 5.0000000000000000e+00
-5.0000000000000000e+00 5.0000000000000000e+00
ITEM: ATOMS id type xs ys zs
1 1 0.619971 0.562558 0.824705
2 1 0.622261 0.825233 0.496928
3 1 0.563296 0.651802 0.870532
4 1 0.773302 0.0372691 0.106252
5 1 0.662105 0.655871 0.454297
6 1 0.704515 0.748825 0.502392
7 1 0.547477 0.483234 0.169779
8 1 0.760627 0.105341 0.853246
9 1 0.287373 0.296296 0.463036
10 1 0.172379 0.655911 0.64239
11 1 0.845044 0.180922 0.856843
ITEM: TIMESTEP
13
ITEM: NUMBER OF ATOMS
11
ITEM: BOX BOUNDS ff ff ff
-5.0000000000000000e+00 5.0000000000000000e+00
-5.0000000000000000e+00 5.0000000000000000e+00
-5.0000000000000000e+00 5.0000000000000000e+00
ITEM: ATOMS id type xs ys zs
1 1 0.61878 0.564438 0.825661
2 1 0.622537 0.824445 0.496769
3 1 0.56449 0.649925 0.869561
4 1 0.773302 0.0372697 0.106252
5 1 0.662199 0.657103 0.454757
6 1 0.704137 0.74837 0.502098
7 1 0.547479 0.483238 0.169787
8 1 0.761431 0.106062 0.85328
9 1 0.287374 0.296299 0.463036
10 1 0.172383 0.655909 0.64239
11 1 0.844239 0.180204 0.856808
ITEM: TIMESTEP
14
ITEM: NUMBER OF ATOMS
11
ITEM: BOX BOUNDS ff ff ff
-5.0000000000000000e+00 5.0000000000000000e+00
-5.0000000000000000e+00 5.0000000000000000e+00
-5.0000000000000000e+00 5.0000000000000000e+00
ITEM: ATOMS id type xs ys zs
1 1 0.619157 0.563846 0.825353
2 1 0.622445 0.824347 0.496701
3 1 0.564113 0.650519 0.869864
4 1 0.773302 0.0372699 0.106252
5 1 0.661967 0.656954 0.454618
6 1 0.704459 0.748613 0.502307
7 1 0.54748 0.483239 0.16979
8 1 0.761138 0.1058 0.853268
9 1 0.287375 0.2963 0.463036
10 1 0.172384 0.655909 0.642389
11 1 0.844532 0.180467 0.856821
ITEM: TIMESTEP
15
ITEM: NUMBER OF ATOMS
11
ITEM: BOX BOUNDS ff ff ff
-5.0000000000000000e+00 5.0000000000000000e+00
-5.0000000000000000e+00 5.0000000000000000e+00
-5.0000000000000000e+00 5.0000000000000000e+00
ITEM: ATOMS id type xs ys zs
1 1 0.619556 0.563227 0.825015
2 1 0.621979 0.823546 0.496258
3 1 0.563719 0.651144 0.87017
4 1 0.773301 0.0372712 0.106253
5 1 0.661106 0.657464 0.454468
6 1 0.705771 0.748881 0.502918
7 1 0.547484 0.483246 0.169807
8 1 0.760692 0.105404 0.853248
9 1 0.287377 0.296307 0.463036
10 1 0.172391 0.655905 0.642388
11 1 0.844974 0.180868 0.856839
ITEM: TIMESTEP
16
ITEM: NUMBER OF ATOMS
11
ITEM: BOX BOUNDS ff ff ff
-5.0000000000000000e+00 5.0000000000000000e+00
-5.0000000000000000e+00 5.0000000000000000e+00
-5.0000000000000000e+00 5.0000000000000000e+00
ITEM: ATOMS id type xs ys zs
1 1 0.619559 0.563223 0.825012
2 1 0.621974 0.82353 0.496251
3 1 0.563716 0.651148 0.870172
4 1 0.773301 0.0372712 0.106253
5 1 0.661094 0.657477 0.454468
6 1 0.705788 0.748884 0.502926
7 1 0.547484 0.483246 0.169807
8 1 0.760689 0.105402 0.853248
9 1 0.287377 0.296307 0.463036
10 1 0.172391 0.655905 0.642388
11 1 0.844977 0.180871 0.856839
ITEM: TIMESTEP
17
ITEM: NUMBER OF ATOMS
11
ITEM: BOX BOUNDS ff ff ff
-5.0000000000000000e+00 5.0000000000000000e+00
-5.0000000000000000e+00 5.0000000000000000e+00
-5.0000000000000000e+00 5.0000000000000000e+00
ITEM: ATOMS id type xs ys zs
1 1 0.619132 0.563897 0.825351
2 1 0.622204 0.822867 0.496115
3 1 0.564144 0.650476 0.869821
4 1 0.773301 0.0372717 0.106253
5 1 0.661081 0.658308 0.454749
6 1 0.705566 0.748708 0.502785
7 1 0.547486 0.483249 0.169813
8 1 0.761183 0.105844 0.853269
9 1 0.287378 0.296309 0.463036
10 1 0.172394 0.655904 0.642388
11 1 0.844483 0.18043 0.856818
ITEM: TIMESTEP
18
ITEM: NUMBER OF ATOMS
11
ITEM: BOX BOUNDS ff ff ff
-5.0000000000000000e+00 5.0000000000000000e+00
-5.0000000000000000e+00 5.0000000000000000e+00
-5.0000000000000000e+00 5.0000000000000000e+00
ITEM: ATOMS id type xs ys zs
1 1 0.61849 0.564978 0.825749
2 1 0.621838 0.812867 0.492625
3 1 0.564821 0.649445 0.869176
4 1 0.773296 0.0372814 0.106257
5 1 0.655941 0.667137 0.455844
6 1 0.710958 0.749699 0.505309
7 1 0.547517 0.483304 0.169942
8 1 0.761703 0.106334 0.853288
9 1 0.287399 0.296359 0.463039
10 1 0.172449 0.655876 0.64238
11 1 0.843941 0.179983 0.856791
ITEM: TIMESTEP
19
ITEM: NUMBER OF ATOMS
11
ITEM: BOX BOUNDS ff ff ff
-5.0000000000000000e+00 5.0000000000000000e+00
-5.0000000000000000e+00 5.0000000000000000e+00
-5.0000000000000000e+00 5.0000000000000000e+00
ITEM: ATOMS id type xs ys zs
1 1 0.618667 0.564773 0.825481
2 1 0.620728 0.802867 0.488851
3 1 0.564679 0.649702 0.869191
4 1 0.77329 0.0372914 0.10626
5 1 0.650348 0.676139 0.456825
6 1 0.717544 0.750515 0.508235
7 1 0.547548 0.48336 0.170073
8 1 0.761606 0.10627 0.85328
9 1 0.287419 0.296409 0.463041
10 1 0.172505 0.655848 0.642371
11 1 0.844016 0.18009 0.85679
ITEM: TIMESTEP
20
ITEM: NUMBER OF ATOMS
11
ITEM: BOX BOUNDS ff ff ff
-5.0000000000000000e+00 5.0000000000000000e+00
-5.0000000000000000e+00 5.0000000000000000e+00
-5.0000000000000000e+00 5.0000000000000000e+00
ITEM: ATOMS id type xs ys zs
1 1 0.620269 0.562296 0.824105
2 1 0.620416 0.794204 0.485811
3 1 0.563099 0.65221 0.870409
4 1 0.773287 0.0372976 0.106263
5 1 0.64663 0.684695 0.458357
6 1 0.721502 0.750507 0.509825
7 1 0.547568 0.483395 0.170155
8 1 0.76028 0.105097 0.853222
9 1 0.287432 0.296441 0.463043
10 1 0.17254 0.65583 0.642366
11 1 0.845328 0.18129 0.856844
ITEM: TIMESTEP
21
ITEM: NUMBER OF ATOMS
11
ITEM: BOX BOUNDS ff ff ff
-5.0000000000000000e+00 5.0000000000000000e+00
-5.0000000000000000e+00 5.0000000000000000e+00
-5.0000000000000000e+00 5.0000000000000000e+00
ITEM: ATOMS id type xs ys zs
1 1 0.620261 0.562318 0.824097
2 1 0.620576 0.792091 0.485159
3 1 0.563111 0.652194 0.870386
4 1 0.773286 0.0372988 0.106263
5 1 0.645832 0.686742 0.458758
6 1 0.722126 0.75055 0.510093
7 1 0.547571 0.483402 0.170171
8 1 0.760313 0.105129 0.853223
9 1 0.287435 0.296447 0.463043
10 1 0.172547 0.655827 0.642365
11 1 0.845293 0.181263 0.856842
ITEM: TIMESTEP
22
ITEM: NUMBER OF ATOMS
11
ITEM: BOX BOUNDS ff ff ff
-5.0000000000000000e+00 5.0000000000000000e+00
-5.0000000000000000e+00 5.0000000000000000e+00
-5.0000000000000000e+00 5.0000000000000000e+00
ITEM: ATOMS id type xs ys zs
1 1 0.619043 0.564243 0.825067
2 1 0.620729 0.791326 0.484966
3 1 0.564334 0.650277 0.869383
4 1 0.773286 0.0373001 0.106264
5 1 0.645278 0.6872 0.458709
6 1 0.722512 0.750833 0.510354
7 1 0.547575 0.483409 0.170187
8 1 0.761412 0.106117 0.853269
9 1 0.287437 0.296454 0.463043
10 1 0.172554 0.655823 0.642364
11 1 0.844191 0.180281 0.856795
ITEM: TIMESTEP
23
ITEM: NUMBER OF ATOMS
11
ITEM: BOX BOUNDS ff ff ff
-5.0000000000000000e+00 5.0000000000000000e+00
-5.0000000000000000e+00 5.0000000000000000e+00
-5.0000000000000000e+00 5.0000000000000000e+00
ITEM: ATOMS id type xs ys zs
1 1 0.618982 0.564341 0.825115
2 1 0.620715 0.791422 0.484995
3 1 0.564396 0.650179 0.869331
4 1 0.773285 0.0373003 0.106264
5 1 0.645286 0.687087 0.458674
6 1 0.722516 0.750848 0.510362
7 1 0.547575 0.48341 0.170188
8 1 0.761445 0.106147 0.853271
9 1 0.287438 0.296455 0.463043
10 1 0.172555 0.655823 0.642363
11 1 0.844158 0.180252 0.856793
ITEM: TIMESTEP
24
ITEM: NUMBER OF ATOMS
11
ITEM: BOX BOUNDS ff ff ff
-5.0000000000000000e+00 5.0000000000000000e+00
-5.0000000000000000e+00 5.0000000000000000e+00
-5.0000000000000000e+00 5.0000000000000000e+00
ITEM: ATOMS id type xs ys zs
1 1 0.619271 0.563888 0.824878
2 1 0.620603 0.792211 0.485224
3 1 0.564108 0.650634 0.869562
4 1 0.773285 0.0373005 0.106264
5 1 0.645596 0.686358 0.458545
6 1 0.722316 0.750784 0.510265
7 1 0.547576 0.483411 0.170191
8 1 0.761078 0.105818 0.853255
9 1 0.287438 0.296456 0.463043
10 1 0.172557 0.655822 0.642363
11 1 0.844524 0.180581 0.856809
ITEM: TIMESTEP
25
ITEM: NUMBER OF ATOMS
11
ITEM: BOX BOUNDS ff ff ff
-5.0000000000000000e+00 5.0000000000000000e+00
-5.0000000000000000e+00 5.0000000000000000e+00
-5.0000000000000000e+00 5.0000000000000000e+00
ITEM: ATOMS id type xs ys zs
1 1 0.619332 0.563796 0.824823
2 1 0.620825 0.792293 0.485342
3 1 0.564048 0.650729 0.869606
4 1 0.773285 0.0373009 0.106264
5 1 0.645891 0.686372 0.458667
6 1 0.721794 0.750679 0.510033
7 1 0.547576 0.483413 0.170196
8 1 0.760989 0.10574 0.853251
9 1 0.287439 0.296458 0.463044
10 1 0.172559 0.655821 0.642363
11 1 0.844612 0.180661 0.856812
ITEM: TIMESTEP
26
ITEM: NUMBER OF ATOMS
11
ITEM: BOX BOUNDS ff ff ff
-5.0000000000000000e+00 5.0000000000000000e+00
-5.0000000000000000e+00 5.0000000000000000e+00
-5.0000000000000000e+00 5.0000000000000000e+00
ITEM: ATOMS id type xs ys zs
1 1 0.619326 0.563806 0.824827
2 1 0.620782 0.792333 0.485339
3 1 0.564055 0.650719 0.8696
4 1 0.773285 0.037301 0.106264
5 1 0.645868 0.686323 0.458641
6 1 0.721859 0.750688 0.510062
7 1 0.547577 0.483413 0.170197
8 1 0.760998 0.105748 0.853251
9 1 0.287439 0.296458 0.463044
10 1 0.17256 0.655821 0.642363
11 1 0.844603 0.180653 0.856812
ITEM: TIMESTEP
27
ITEM: NUMBER OF ATOMS
11
ITEM: BOX BOUNDS ff ff ff
-5.0000000000000000e+00 5.0000000000000000e+00
-5.0000000000000000e+00 5.0000000000000000e+00
-5.0000000000000000e+00 5.0000000000000000e+00
ITEM: ATOMS id type xs ys zs
1 1 0.619318 0.56382 0.824831
2 1 0.620734 0.792372 0.485335
3 1 0.564063 0.650706 0.869591
4 1 0.773285 0.0373011 0.106264
5 1 0.645841 0.686272 0.458614
6 1 0.721932 0.750697 0.510095
7 1 0.547577 0.483414 0.170198
8 1 0.761011 0.10576 0.853252
9 1 0.287439 0.296459 0.463044
10 1 0.17256 0.65582 0.642363
11 1 0.84459 0.180642 0.856811
ITEM: TIMESTEP
28
ITEM: NUMBER OF ATOMS
11
ITEM: BOX BOUNDS ff ff ff
-5.0000000000000000e+00 5.0000000000000000e+00
-5.0000000000000000e+00 5.0000000000000000e+00
-5.0000000000000000e+00 5.0000000000000000e+00
ITEM: ATOMS id type xs ys zs
1 1 0.619311 0.563833 0.824833
2 1 0.620717 0.792372 0.485332
3 1 0.564071 0.650695 0.869582
4 1 0.773285 0.0373014 0.106264
5 1 0.645825 0.686264 0.458607
6 1 0.721962 0.750699 0.510111
7 1 0.547578 0.483416 0.170202
8 1 0.761021 0.10577 0.853252
9 1 0.28744 0.296461 0.463044
10 1 0.172562 0.65582 0.642362
11 1 0.844579 0.180633 0.856811
ITEM: TIMESTEP
29
ITEM: NUMBER OF ATOMS
11
ITEM: BOX BOUNDS ff ff ff
-5.0000000000000000e+00 5.0000000000000000e+00
-5.0000000000000000e+00 5.0000000000000000e+00
-5.0000000000000000e+00 5.0000000000000000e+00
ITEM: ATOMS id type xs ys zs
1 1 0.61931 0.563837 0.82483
2 1 0.620717 0.792363 0.485331
3 1 0.564073 0.650692 0.869577
4 1 0.773285 0.0373017 0.106264
5 1 0.64582 0.686269 0.458609
6 1 0.721964 0.750698 0.510115
7 1 0.547578 0.483417 0.170205
8 1 0.761024 0.105773 0.853252
9 1 0.287441 0.296462 0.463044
10 1 0.172564 0.655819 0.642362
11 1 0.844575 0.180632 0.85681
ITEM: TIMESTEP
30
ITEM: NUMBER OF ATOMS
11
ITEM: BOX BOUNDS ff ff ff
-5.0000000000000000e+00 5.0000000000000000e+00
-5.0000000000000000e+00 5.0000000000000000e+00
-5.0000000000000000e+00 5.0000000000000000e+00
ITEM: ATOMS id type xs ys zs
1 1 0.619312 0.563834 0.824824
2 1 0.620721 0.792358 0.485333
3 1 0.564072 0.650696 0.869575
4 1 0.773285 0.037302 0.106264
5 1 0.645822 0.686272 0.458613
6 1 0.721955 0.750695 0.510114
7 1 0.547579 0.483419 0.170208
8 1 0.761021 0.105771 0.853252
9 1 0.287441 0.296463 0.463044
10 1 0.172565 0.655818 0.642362
11 1 0.844578 0.180635 0.85681
ITEM: TIMESTEP
31
ITEM: NUMBER OF ATOMS
11
ITEM: BOX BOUNDS ff ff ff
-5.0000000000000000e+00 5.0000000000000000e+00
-5.0000000000000000e+00 5.0000000000000000e+00
-5.0000000000000000e+00 5.0000000000000000e+00
ITEM: ATOMS id type xs ys zs
1 1 0.619323 0.563837 0.824784
2 1 0.620709 0.792356 0.485348
3 1 0.56407 0.650708 0.86955
4 1 0.773283 0.0373044 0.106265
5 1 0.645817 0.686246 0.458619
6 1 0.721945 0.750676 0.510133
7 1 0.547584 0.483432 0.170236
8 1 0.761012 0.105769 0.853251
9 1 0.287446 0.296476 0.463045
10 1 0.17258 0.655811 0.642359
11 1 0.844581 0.180647 0.85681
ITEM: TIMESTEP
32
ITEM: NUMBER OF ATOMS
11
ITEM: BOX BOUNDS ff ff ff
-5.0000000000000000e+00 5.0000000000000000e+00
-5.0000000000000000e+00 5.0000000000000000e+00
-5.0000000000000000e+00 5.0000000000000000e+00
ITEM: ATOMS id type xs ys zs
1 1 0.619577 0.564219 0.823309
2 1 0.620425 0.791854 0.485872
3 1 0.564187 0.650899 0.868425
4 1 0.77323 0.0374023 0.106302
5 1 0.645559 0.68565 0.458971
6 1 0.72141 0.749932 0.510837
7 1 0.547781 0.483949 0.171365
8 1 0.760919 0.105921 0.853215
9 1 0.287647 0.296982 0.46307
10 1 0.17316 0.655531 0.642266
11 1 0.844455 0.180924 0.856767
ITEM: TIMESTEP
33
ITEM: NUMBER OF ATOMS
11
ITEM: BOX BOUNDS ff ff ff
-5.0000000000000000e+00 5.0000000000000000e+00
-5.0000000000000000e+00 5.0000000000000000e+00
-5.0000000000000000e+00 5.0000000000000000e+00
ITEM: ATOMS id type xs ys zs
1 1 0.61955 0.564265 0.823326
2 1 0.620389 0.79177 0.485832
3 1 0.564216 0.650856 0.868397
4 1 0.77323 0.0374027 0.106302
5 1 0.64548 0.685709 0.458963
6 1 0.721521 0.749949 0.510891
7 1 0.547782 0.483951 0.17137
8 1 0.76096 0.105959 0.853216
9 1 0.287648 0.296984 0.46307
10 1 0.173162 0.65553 0.642265
11 1 0.844414 0.180889 0.856765
ITEM: TIMESTEP
34
ITEM: NUMBER OF ATOMS
11
ITEM: BOX BOUNDS ff ff ff
-5.0000000000000000e+00 5.0000000000000000e+00
-5.0000000000000000e+00 5.0000000000000000e+00
-5.0000000000000000e+00 5.0000000000000000e+00
ITEM: ATOMS id type xs ys zs
1 1 0.619551 0.564264 0.823323
2 1 0.62039 0.791761 0.485831
3 1 0.564215 0.650858 0.868397
4 1 0.77323 0.0374028 0.106302
5 1 0.645477 0.685717 0.458966
6 1 0.721521 0.749948 0.510893
7 1 0.547782 0.483952 0.171371
8 1 0.760959 0.105957 0.853216
9 1 0.287648 0.296985 0.46307
10 1 0.173163 0.655529 0.642265
11 1 0.844415 0.18089 0.856765
ITEM: TIMESTEP
35
ITEM: NUMBER OF ATOMS
11
ITEM: BOX BOUNDS ff ff ff
-5.0000000000000000e+00 5.0000000000000000e+00
-5.0000000000000000e+00 5.0000000000000000e+00
-5.0000000000000000e+00 5.0000000000000000e+00
ITEM: ATOMS id type xs ys zs
1 1 0.61956 0.564252 0.823312
2 1 0.620398 0.791761 0.485836
3 1 0.564207 0.650871 0.8684
4 1 0.77323 0.0374031 0.106302
5 1 0.645486 0.685716 0.458971
6 1 0.721501 0.749943 0.510887
7 1 0.547783 0.483953 0.171375
8 1 0.760947 0.105947 0.853216
9 1 0.287649 0.296986 0.46307
10 1 0.173164 0.655528 0.642265
11 1 0.844426 0.180902 0.856766
ITEM: TIMESTEP
36
ITEM: NUMBER OF ATOMS
11
ITEM: BOX BOUNDS ff ff ff
-5.0000000000000000e+00 5.0000000000000000e+00
-5.0000000000000000e+00 5.0000000000000000e+00
-5.0000000000000000e+00 5.0000000000000000e+00
ITEM: ATOMS id type xs ys zs
1 1 0.619562 0.564253 0.823303
2 1 0.620393 0.791769 0.485842
3 1 0.564207 0.650874 0.868394
4 1 0.77323 0.0374037 0.106302
5 1 0.645487 0.685702 0.45897
6 1 0.721499 0.749939 0.510891
7 1 0.547784 0.483956 0.171381
8 1 0.760944 0.105947 0.853215
9 1 0.28765 0.296989 0.46307
10 1 0.173168 0.655527 0.642264
11 1 0.844427 0.180905 0.856766
ITEM: TIMESTEP
37
ITEM: NUMBER OF ATOMS
11
ITEM: BOX BOUNDS ff ff ff
-5.0000000000000000e+00 5.0000000000000000e+00
-5.0000000000000000e+00 5.0000000000000000e+00
-5.0000000000000000e+00 5.0000000000000000e+00
ITEM: ATOMS id type xs ys zs
1 1 0.619571 0.564293 0.82321
2 1 0.620376 0.791747 0.485882
3 1 0.564223 0.650873 0.868312
4 1 0.773226 0.03741 0.106305
5 1 0.645478 0.685652 0.458994
6 1 0.721453 0.749887 0.510935
7 1 0.547797 0.483991 0.171456
8 1 0.760951 0.105968 0.853214
9 1 0.287663 0.297022 0.463072
10 1 0.173206 0.655508 0.642258
11 1 0.844407 0.180911 0.856762
ITEM: TIMESTEP
38
ITEM: NUMBER OF ATOMS
11
ITEM: BOX BOUNDS ff ff ff
-5.0000000000000000e+00 5.0000000000000000e+00
-5.0000000000000000e+00 5.0000000000000000e+00
-5.0000000000000000e+00 5.0000000000000000e+00
ITEM: ATOMS id type xs ys zs
1 1 0.619708 0.56452 0.822386
2 1 0.620233 0.791361 0.486142
3 1 0.564292 0.650976 0.867685
4 1 0.773198 0.0374625 0.106324
5 1 0.645292 0.685422 0.45921
6 1 0.721186 0.749481 0.511348
7 1 0.547906 0.484277 0.172078
8 1 0.760907 0.106054 0.853194
9 1 0.287773 0.297298 0.463086
10 1 0.173523 0.655356 0.642206
11 1 0.844334 0.181056 0.856739
ITEM: TIMESTEP
39
ITEM: NUMBER OF ATOMS
11
ITEM: BOX BOUNDS ff ff ff
-5.0000000000000000e+00 5.0000000000000000e+00
-5.0000000000000000e+00 5.0000000000000000e+00
-5.0000000000000000e+00 5.0000000000000000e+00
ITEM: ATOMS id type xs ys zs
1 1 0.620557 0.56589 0.817347
2 1 0.619101 0.789343 0.48775
3 1 0.564705 0.651618 0.863867
4 1 0.773025 0.0377826 0.106445
5 1 0.644078 0.683636 0.460363
6 1 0.719894 0.747042 0.514018
7 1 0.548571 0.486026 0.175873
8 1 0.760624 0.106571 0.853075
9 1 0.288441 0.298984 0.463174
10 1 0.175455 0.654423 0.641892
11 1 0.843901 0.181948 0.856596
ITEM: TIMESTEP
40
ITEM: NUMBER OF ATOMS
11
ITEM: BOX BOUNDS ff ff ff
-5.0000000000000000e+00 5.0000000000000000e+00
-5.0000000000000000e+00 5.0000000000000000e+00
-5.0000000000000000e+00 5.0000000000000000e+00
ITEM: ATOMS id type xs ys zs
1 1 0.622165 0.568764 0.807347
2 1 0.616964 0.785497 0.491081
3 1 0.565618 0.652765 0.856161
4 1 0.77268 0.0384226 0.106686
5 1 0.64188 0.679941 0.462718
6 1 0.716957 0.742104 0.519189
7 1 0.5499 0.489521 0.183459
8 1 0.760175 0.107709 0.852841
9 1 0.289777 0.302353 0.463349
10 1 0.179318 0.65256 0.641262
11 1 0.842919 0.183626 0.856306
ITEM: TIMESTEP
41
ITEM: NUMBER OF ATOMS
11
ITEM: BOX BOUNDS ff ff ff
-5.0000000000000000e+00 5.0000000000000000e+00
-5.0000000000000000e+00 5.0000000000000000e+00
-5.0000000000000000e+00 5.0000000000000000e+00
ITEM: ATOMS id type xs ys zs
1 1 0.623479 0.571419 0.798674
2 1 0.615371 0.782148 0.494126
3 1 0.56651 0.653631 0.849336
4 1 0.772378 0.0389824 0.106897
5 1 0.640284 0.676794 0.464957
6 1 0.713781 0.737678 0.52341
7 1 0.551063 0.49258 0.190098
8 1 0.759866 0.108781 0.85264
9 1 0.290945 0.305301 0.463502
10 1 0.182698 0.650929 0.640711
11 1 0.841976 0.185018 0.856048
ITEM: TIMESTEP
42
ITEM: NUMBER OF ATOMS
11
ITEM: BOX BOUNDS ff ff ff
-5.0000000000000000e+00 5.0000000000000000e+00
-5.0000000000000000e+00 5.0000000000000000e+00
-5.0000000000000000e+00 5.0000000000000000e+00
ITEM: ATOMS id type xs ys zs
1 1 0.625025 0.57442 0.788674
2 1 0.613347 0.778449 0.497591
3 1 0.5675 0.654679 0.841526
4 1 0.772031 0.0396254 0.107139
5 1 0.638341 0.673007 0.467412
6 1 0.710436 0.732615 0.528414
7 1 0.552399 0.496095 0.197725
8 1 0.759449 0.109956 0.852407
9 1 0.292288 0.308688 0.463678
10 1 0.186581 0.649056 0.640079
11 1 0.840954 0.186673 0.855755
ITEM: TIMESTEP
43
ITEM: NUMBER OF ATOMS
11
ITEM: BOX BOUNDS ff ff ff
-5.0000000000000000e+00 5.0000000000000000e+00
-5.0000000000000000e+00 5.0000000000000000e+00
-5.0000000000000000e+00 5.0000000000000000e+00
ITEM: ATOMS id type xs ys zs
1 1 0.626643 0.577284 0.778674
2 1 0.611053 0.774788 0.500886
3 1 0.568398 0.655834 0.833855
4 1 0.771687 0.0402628 0.107379
5 1 0.636131 0.669186 0.469677
6 1 0.707687 0.727647 0.533694
7 1 0.553724 0.499582 0.20529
8 1 0.758909 0.111 0.852171
9 1 0.293619 0.312046 0.463853
10 1 0.190431 0.647199 0.639451
11 1 0.840069 0.188434 0.85547
ITEM: TIMESTEP
44
ITEM: NUMBER OF ATOMS
11
ITEM: BOX BOUNDS ff ff ff
-5.0000000000000000e+00 5.0000000000000000e+00
-5.0000000000000000e+00 5.0000000000000000e+00
-5.0000000000000000e+00 5.0000000000000000e+00
ITEM: ATOMS id type xs ys zs
1 1 0.628249 0.580174 0.768674
2 1 0.608957 0.770662 0.504095
3 1 0.569312 0.656973 0.826168
4 1 0.771344 0.0408999 0.107619
5 1 0.633891 0.665837 0.472131
6 1 0.704766 0.722665 0.538888
7 1 0.55505 0.503069 0.212855
8 1 0.758357 0.112033 0.851934
9 1 0.294951 0.315403 0.464027
10 1 0.19428 0.645342 0.638823
11 1 0.839195 0.190205 0.855185
ITEM: TIMESTEP
45
ITEM: NUMBER OF ATOMS
11
ITEM: BOX BOUNDS ff ff ff
-5.0000000000000000e+00 5.0000000000000000e+00
-5.0000000000000000e+00 5.0000000000000000e+00
-5.0000000000000000e+00 5.0000000000000000e+00
ITEM: ATOMS id type xs ys zs
1 1 0.629041 0.582027 0.76303
2 1 0.608041 0.768052 0.506012
3 1 0.569975 0.657454 0.821608
4 1 0.771146 0.0412658 0.107757
5 1 0.632802 0.664189 0.47379
6 1 0.70259 0.719743 0.541585
7 1 0.555813 0.505076 0.217209
8 1 0.758177 0.112759 0.851803
9 1 0.295716 0.317333 0.464128
10 1 0.196494 0.644274 0.638462
11 1 0.838557 0.19109 0.855015
ITEM: TIMESTEP
46
ITEM: NUMBER OF ATOMS
11
ITEM: BOX BOUNDS ff ff ff
-5.0000000000000000e+00 5.0000000000000000e+00
-5.0000000000000000e+00 5.0000000000000000e+00
-5.0000000000000000e+00 5.0000000000000000e+00
ITEM: ATOMS id type xs ys zs
1 1 0.630431 0.585343 0.75303
2 1 0.606146 0.763996 0.509501
3 1 0.571166 0.658286 0.813513
4 1 0.770797 0.0419128 0.108001
5 1 0.630901 0.66071 0.476493
6 1 0.698981 0.714554 0.546528
7 1 0.557163 0.50863 0.224915
8 1 0.757875 0.114058 0.851572
9 1 0.297069 0.320748 0.464307
10 1 0.200409 0.642386 0.637824
11 1 0.837411 0.192639 0.854715
ITEM: TIMESTEP
47
ITEM: NUMBER OF ATOMS
11
ITEM: BOX BOUNDS ff ff ff
-5.0000000000000000e+00 5.0000000000000000e+00
-5.0000000000000000e+00 5.0000000000000000e+00
-5.0000000000000000e+00 5.0000000000000000e+00
ITEM: ATOMS id type xs ys zs
1 1 0.631883 0.588553 0.74303
2 1 0.604027 0.760347 0.512982
3 1 0.572278 0.659199 0.805561
4 1 0.770452 0.0425536 0.108243
5 1 0.628958 0.656883 0.478958
6 1 0.695699 0.709409 0.551639
7 1 0.558502 0.512152 0.232552
8 1 0.757499 0.115269 0.851341
9 1 0.298411 0.324132 0.464483
10 1 0.204289 0.640515 0.63719
11 1 0.836354 0.19425 0.85442
ITEM: TIMESTEP
48
ITEM: NUMBER OF ATOMS
11
ITEM: BOX BOUNDS ff ff ff
-5.0000000000000000e+00 5.0000000000000000e+00
-5.0000000000000000e+00 5.0000000000000000e+00
-5.0000000000000000e+00 5.0000000000000000e+00
ITEM: ATOMS id type xs ys zs
1 1 0.631995 0.58845 0.74288
2 1 0.603877 0.760547 0.512989
3 1 0.572176 0.659326 0.805657
4 1 0.770452 0.0425538 0.108243
5 1 0.628908 0.656671 0.47883
6 1 0.695885 0.709392 0.551807
7 1 0.558503 0.512156 0.232559
8 1 0.757372 0.115142 0.851336
9 1 0.298411 0.324133 0.464484
10 1 0.204291 0.640514 0.63719
11 1 0.83648 0.194377 0.854425
ITEM: TIMESTEP
49
ITEM: NUMBER OF ATOMS
11
ITEM: BOX BOUNDS ff ff ff
-5.0000000000000000e+00 5.0000000000000000e+00
-5.0000000000000000e+00 5.0000000000000000e+00
-5.0000000000000000e+00 5.0000000000000000e+00
ITEM: ATOMS id type xs ys zs
1 1 0.632037 0.588428 0.742807
2 1 0.603863 0.760563 0.512999
3 1 0.572145 0.65937 0.805682
4 1 0.770451 0.0425539 0.108243
5 1 0.628904 0.656645 0.478825
6 1 0.69589 0.709376 0.551844
7 1 0.558504 0.512159 0.232566
8 1 0.757328 0.115099 0.851334
9 1 0.298412 0.324135 0.464484
10 1 0.204293 0.640513 0.63719
11 1 0.836524 0.194422 0.854427
ITEM: TIMESTEP
50
ITEM: NUMBER OF ATOMS
11
ITEM: BOX BOUNDS ff ff ff
-5.0000000000000000e+00 5.0000000000000000e+00
-5.0000000000000000e+00 5.0000000000000000e+00
-5.0000000000000000e+00 5.0000000000000000e+00
ITEM: ATOMS id type xs ys zs
1 1 0.632094 0.58843 0.74267
2 1 0.603856 0.760564 0.513023
3 1 0.572111 0.659424 0.805694
4 1 0.770451 0.0425542 0.108243
5 1 0.628903 0.656617 0.478839
6 1 0.695865 0.709334 0.551916
7 1 0.558507 0.512168 0.232583
8 1 0.757275 0.115045 0.851332
9 1 0.298413 0.324139 0.464484
10 1 0.204298 0.640511 0.637188
11 1 0.836577 0.194476 0.854428
ITEM: TIMESTEP
51
ITEM: NUMBER OF ATOMS
11
ITEM: BOX BOUNDS ff ff ff
-5.0000000000000000e+00 5.0000000000000000e+00
-5.0000000000000000e+00 5.0000000000000000e+00
-5.0000000000000000e+00 5.0000000000000000e+00
ITEM: ATOMS id type xs ys zs
1 1 0.63309 0.593597 0.734682
2 1 0.604387 0.758795 0.515115
3 1 0.573331 0.659362 0.802348
4 1 0.770438 0.04258 0.108257
5 1 0.62893 0.655859 0.481069
6 1 0.692301 0.705631 0.557484