ITEM: TIMESTEP
0
ITEM: NUMBER OF ATOMS
3
ITEM: BOX BOUNDS ff ff ff
-5.0000000000000000e+00 5.0000000000000000e+00
-5.0000000000000000e+00 5.0000000000000000e+00
-5.0000000000000000e+00 5.0000000000000000e+00
ITEM: ATOMS id type xs ys zs
1 1 0.489294 0.563213 0.914017
2 1 0.888316 0.933161 0.63092
3 1 0.874447 0.829941 0.820629
ITEM: TIMESTEP
1
ITEM: NUMBER OF ATOMS
3
ITEM: BOX BOUNDS ff ff ff
-5.0000000000000000e+00 5.0000000000000000e+00
-5.0000000000000000e+00 5.0000000000000000e+00
-5.0000000000000000e+00 5.0000000000000000e+00
ITEM: ATOMS id type xs ys zs
1 1 0.489333 0.563241 0.914006
2 1 0.887633 0.928108 0.640201
3 1 0.875091 0.834965 0.81136
ITEM: TIMESTEP
2
ITEM: NUMBER OF ATOMS
3
ITEM: BOX BOUNDS ff ff ff
-5.0000000000000000e+00 5.0000000000000000e+00
-5.0000000000000000e+00 5.0000000000000000e+00
-5.0000000000000000e+00 5.0000000000000000e+00
ITEM: ATOMS id type xs ys zs
1 1 0.489364 0.563263 0.913996
2 1 0.886898 0.922665 0.650201
3 1 0.875796 0.840387 0.80137
ITEM: TIMESTEP
3
ITEM: NUMBER OF ATOMS
3
ITEM: BOX BOUNDS ff ff ff
-5.0000000000000000e+00 5.0000000000000000e+00
-5.0000000000000000e+00 5.0000000000000000e+00
-5.0000000000000000e+00 5.0000000000000000e+00
ITEM: ATOMS id type xs ys zs
1 1 0.489388 0.563281 0.913988
2 1 0.886162 0.917221 0.660201
3 1 0.876507 0.845812 0.791377
ITEM: TIMESTEP
4
ITEM: NUMBER OF ATOMS
3
ITEM: BOX BOUNDS ff ff ff
-5.0000000000000000e+00 5.0000000000000000e+00
-5.0000000000000000e+00 5.0000000000000000e+00
-5.0000000000000000e+00 5.0000000000000000e+00
ITEM: ATOMS id type xs ys zs
1 1 0.489409 0.563296 0.913982
2 1 0.885426 0.911778 0.670201
3 1 0.877222 0.851241 0.781384
ITEM: TIMESTEP
5
ITEM: NUMBER OF ATOMS
3
ITEM: BOX BOUNDS ff ff ff
-5.0000000000000000e+00 5.0000000000000000e+00
-5.0000000000000000e+00 5.0000000000000000e+00
-5.0000000000000000e+00 5.0000000000000000e+00
ITEM: ATOMS id type xs ys zs
1 1 0.489418 0.563303 0.913979
2 1 0.885058 0.909056 0.675201
3 1 0.877581 0.853956 0.776387
ITEM: TIMESTEP
6
ITEM: NUMBER OF ATOMS
3
ITEM: BOX BOUNDS ff ff ff
-5.0000000000000000e+00 5.0000000000000000e+00
-5.0000000000000000e+00 5.0000000000000000e+00
-5.0000000000000000e+00 5.0000000000000000e+00
ITEM: ATOMS id type xs ys zs
1 1 0.489419 0.563303 0.913979
2 1 0.884912 0.907978 0.677181
3 1 0.877727 0.855034 0.774408
ITEM: TIMESTEP
7
ITEM: NUMBER OF ATOMS
3
ITEM: BOX BOUNDS ff ff ff
-5.0000000000000000e+00 5.0000000000000000e+00
-5.0000000000000000e+00 5.0000000000000000e+00
-5.0000000000000000e+00 5.0000000000000000e+00
ITEM: ATOMS id type xs ys zs
1 1 0.489419 0.563303 0.913979
2 1 0.884927 0.90809 0.676975
3 1 0.877712 0.854921 0.774614
ITEM: TIMESTEP
8
ITEM: NUMBER OF ATOMS
3
ITEM: BOX BOUNDS ff ff ff
-5.0000000000000000e+00 5.0000000000000000e+00
-5.0000000000000000e+00 5.0000000000000000e+00
-5.0000000000000000e+00 5.0000000000000000e+00
ITEM: ATOMS id type xs ys zs
1 1 0.489419 0.563303 0.913979
2 1 0.88495 0.908259 0.676663
3 1 0.877689 0.854752 0.774925
ITEM: TIMESTEP
9
ITEM: NUMBER OF ATOMS
3
ITEM: BOX BOUNDS ff ff ff
-5.0000000000000000e+00 5.0000000000000000e+00
-5.0000000000000000e+00 5.0000000000000000e+00
-5.0000000000000000e+00 5.0000000000000000e+00
ITEM: ATOMS id type xs ys zs
1 1 0.489419 0.563303 0.913979
2 1 0.884953 0.908283 0.676619
3 1 0.877685 0.854728 0.774969
ITEM: TIMESTEP
10
ITEM: NUMBER OF ATOMS
3
ITEM: BOX BOUNDS ff ff ff
-5.0000000000000000e+00 5.0000000000000000e+00
-5.0000000000000000e+00 5.0000000000000000e+00
-5.0000000000000000e+00 5.0000000000000000e+00
ITEM: ATOMS id type xs ys zs
1 1 0.489419 0.563304 0.913978
2 1 0.884954 0.908291 0.676605
3 1 0.877684 0.85472 0.774983
ITEM: TIMESTEP
11
ITEM: NUMBER OF ATOMS
3
ITEM: BOX BOUNDS ff ff ff
-5.0000000000000000e+00 5.0000000000000000e+00
-5.0000000000000000e+00 5.0000000000000000e+00
-5.0000000000000000e+00 5.0000000000000000e+00
ITEM: ATOMS id type xs ys zs
1 1 0.48942 0.563304 0.913978
2 1 0.884954 0.908289 0.676608
3 1 0.877684 0.854721 0.77498
ITEM: TIMESTEP
12
ITEM: NUMBER OF ATOMS
3
ITEM: BOX BOUNDS ff ff ff
-5.0000000000000000e+00 5.0000000000000000e+00
-5.0000000000000000e+00 5.0000000000000000e+00
-5.0000000000000000e+00 5.0000000000000000e+00
ITEM: ATOMS id type xs ys zs
1 1 0.48942 0.563304 0.913978
2 1 0.884953 0.908289 0.676609
3 1 0.877684 0.854721 0.77498
ITEM: TIMESTEP
13
ITEM: NUMBER OF ATOMS
3
ITEM: BOX BOUNDS ff ff ff
-5.0000000000000000e+00 5.0000000000000000e+00
-5.0000000000000000e+00 5.0000000000000000e+00
-5.0000000000000000e+00 5.0000000000000000e+00
ITEM: ATOMS id type xs ys zs
1 1 0.489496 0.563364 0.913946
2 1 0.884933 0.908266 0.67663
3 1 0.877628 0.854684 0.774991
ITEM: TIMESTEP
14
ITEM: NUMBER OF ATOMS
3
ITEM: BOX BOUNDS ff ff ff
-5.0000000000000000e+00 5.0000000000000000e+00
-5.0000000000000000e+00 5.0000000000000000e+00
-5.0000000000000000e+00 5.0000000000000000e+00
ITEM: ATOMS id type xs ys zs
1 1 0.489497 0.563365 0.913946
2 1 0.884933 0.908266 0.67663
3 1 0.877627 0.854683 0.774991
ITEM: TIMESTEP
15
ITEM: NUMBER OF ATOMS
3
ITEM: BOX BOUNDS ff ff ff
-5.0000000000000000e+00 5.0000000000000000e+00
-5.0000000000000000e+00 5.0000000000000000e+00
-5.0000000000000000e+00 5.0000000000000000e+00
ITEM: ATOMS id type xs ys zs
1 1 0.489647 0.563482 0.913883
2 1 0.884892 0.908222 0.676671
3 1 0.877518 0.85461 0.775013
ITEM: TIMESTEP
16
ITEM: NUMBER OF ATOMS
3
ITEM: BOX BOUNDS ff ff ff
-5.0000000000000000e+00 5.0000000000000000e+00
-5.0000000000000000e+00 5.0000000000000000e+00
-5.0000000000000000e+00 5.0000000000000000e+00
ITEM: ATOMS id type xs ys zs
1 1 0.489648 0.563483 0.913882
2 1 0.884892 0.908221 0.676673
3 1 0.877518 0.85461 0.775012
ITEM: TIMESTEP
17
ITEM: NUMBER OF ATOMS
3
ITEM: BOX BOUNDS ff ff ff
-5.0000000000000000e+00 5.0000000000000000e+00
-5.0000000000000000e+00 5.0000000000000000e+00
-5.0000000000000000e+00 5.0000000000000000e+00
ITEM: ATOMS id type xs ys zs
1 1 0.489674 0.563503 0.913871
2 1 0.884884 0.908212 0.676683
3 1 0.877499 0.854599 0.775013
ITEM: TIMESTEP
18
ITEM: NUMBER OF ATOMS
3
ITEM: BOX BOUNDS ff ff ff
-5.0000000000000000e+00 5.0000000000000000e+00
-5.0000000000000000e+00 5.0000000000000000e+00
-5.0000000000000000e+00 5.0000000000000000e+00
ITEM: ATOMS id type xs ys zs
1 1 0.489674 0.563503 0.913871
2 1 0.884885 0.908214 0.67668
3 1 0.877498 0.854597 0.775016
ITEM: TIMESTEP
19
ITEM: NUMBER OF ATOMS
3
ITEM: BOX BOUNDS ff ff ff
-5.0000000000000000e+00 5.0000000000000000e+00
-5.0000000000000000e+00 5.0000000000000000e+00
-5.0000000000000000e+00 5.0000000000000000e+00
ITEM: ATOMS id type xs ys zs
1 1 0.489707 0.563529 0.913857
2 1 0.884876 0.908205 0.676687
3 1 0.877474 0.85458 0.775023
ITEM: TIMESTEP
20
ITEM: NUMBER OF ATOMS
3
ITEM: BOX BOUNDS ff ff ff
-5.0000000000000000e+00 5.0000000000000000e+00
-5.0000000000000000e+00 5.0000000000000000e+00
-5.0000000000000000e+00 5.0000000000000000e+00
ITEM: ATOMS id type xs ys zs
1 1 0.489728 0.563545 0.913848
2 1 0.88487 0.908197 0.676696
3 1 0.87746 0.854572 0.775022
ITEM: TIMESTEP
21
ITEM: NUMBER OF ATOMS
3
ITEM: BOX BOUNDS ff ff ff
-5.0000000000000000e+00 5.0000000000000000e+00
-5.0000000000000000e+00 5.0000000000000000e+00
-5.0000000000000000e+00 5.0000000000000000e+00
ITEM: ATOMS id type xs ys zs
1 1 0.489905 0.563683 0.913774
2 1 0.884821 0.908141 0.676753
3 1 0.877331 0.85449 0.77504
ITEM: TIMESTEP
22
ITEM: NUMBER OF ATOMS
3
ITEM: BOX BOUNDS ff ff ff
-5.0000000000000000e+00 5.0000000000000000e+00
-5.0000000000000000e+00 5.0000000000000000e+00
-5.0000000000000000e+00 5.0000000000000000e+00
ITEM: ATOMS id type xs ys zs
1 1 0.499905 0.571508 0.90956
2 1 0.882108 0.905161 0.679602
3 1 0.870044 0.849645 0.776405
ITEM: TIMESTEP
23
ITEM: NUMBER OF ATOMS
3
ITEM: BOX BOUNDS ff ff ff
-5.0000000000000000e+00 5.0000000000000000e+00
-5.0000000000000000e+00 5.0000000000000000e+00
-5.0000000000000000e+00 5.0000000000000000e+00
ITEM: ATOMS id type xs ys zs
1 1 0.499905 0.571508 0.90956
2 1 0.882108 0.905162 0.6796
3 1 0.870044 0.849644 0.776407
ITEM: TIMESTEP
24
ITEM: NUMBER OF ATOMS
3
ITEM: BOX BOUNDS ff ff ff
-5.0000000000000000e+00 5.0000000000000000e+00
-5.0000000000000000e+00 5.0000000000000000e+00
-5.0000000000000000e+00 5.0000000000000000e+00
ITEM: ATOMS id type xs ys zs
1 1 0.49995 0.571543 0.909541
2 1 0.882097 0.905149 0.679613
3 1 0.87001 0.849622 0.776413
ITEM: TIMESTEP
25
ITEM: NUMBER OF ATOMS
3
ITEM: BOX BOUNDS ff ff ff
-5.0000000000000000e+00 5.0000000000000000e+00
-5.0000000000000000e+00 5.0000000000000000e+00
-5.0000000000000000e+00 5.0000000000000000e+00
ITEM: ATOMS id type xs ys zs
1 1 0.499953 0.571545 0.90954
2 1 0.882096 0.905147 0.679615
3 1 0.870009 0.849621 0.776412
ITEM: TIMESTEP
26
ITEM: NUMBER OF ATOMS
3
ITEM: BOX BOUNDS ff ff ff
-5.0000000000000000e+00 5.0000000000000000e+00
-5.0000000000000000e+00 5.0000000000000000e+00
-5.0000000000000000e+00 5.0000000000000000e+00
ITEM: ATOMS id type xs ys zs
1 1 0.499964 0.571554 0.909535
2 1 0.882093 0.905143 0.67962
3 1 0.870001 0.849617 0.776412
ITEM: TIMESTEP
27
ITEM: NUMBER OF ATOMS
3
ITEM: BOX BOUNDS ff ff ff
-5.0000000000000000e+00 5.0000000000000000e+00
-5.0000000000000000e+00 5.0000000000000000e+00
-5.0000000000000000e+00 5.0000000000000000e+00
ITEM: ATOMS id type xs ys zs
1 1 0.499964 0.571554 0.909535
2 1 0.882093 0.905145 0.679618
3 1 0.87 0.849616 0.776414
ITEM: TIMESTEP
28
ITEM: NUMBER OF ATOMS
3
ITEM: BOX BOUNDS ff ff ff
-5.0000000000000000e+00 5.0000000000000000e+00
-5.0000000000000000e+00 5.0000000000000000e+00
-5.0000000000000000e+00 5.0000000000000000e+00
ITEM: ATOMS id type xs ys zs
1 1 0.500008 0.571588 0.909516
2 1 0.882081 0.905132 0.679629
3 1 0.869968 0.849593 0.776421
ITEM: TIMESTEP
29
ITEM: NUMBER OF ATOMS
3
ITEM: BOX BOUNDS ff ff ff
-5.0000000000000000e+00 5.0000000000000000e+00
-5.0000000000000000e+00 5.0000000000000000e+00
-5.0000000000000000e+00 5.0000000000000000e+00
ITEM: ATOMS id type xs ys zs
1 1 0.500019 0.571597 0.909512
2 1 0.882078 0.905128 0.679635
3 1 0.86996 0.84959 0.77642
ITEM: TIMESTEP
30
ITEM: NUMBER OF ATOMS
3
ITEM: BOX BOUNDS ff ff ff
-5.0000000000000000e+00 5.0000000000000000e+00
-5.0000000000000000e+00 5.0000000000000000e+00
-5.0000000000000000e+00 5.0000000000000000e+00
ITEM: ATOMS id type xs ys zs
1 1 0.500048 0.571619 0.9095
2 1 0.88207 0.905117 0.679646
3 1 0.869939 0.849577 0.776421
ITEM: TIMESTEP
31
ITEM: NUMBER OF ATOMS
3
ITEM: BOX BOUNDS ff ff ff
-5.0000000000000000e+00 5.0000000000000000e+00
-5.0000000000000000e+00 5.0000000000000000e+00
-5.0000000000000000e+00 5.0000000000000000e+00
ITEM: ATOMS id type xs ys zs
1 1 0.505485 0.575867 0.907222
2 1 0.880638 0.903476 0.681285
3 1 0.865934 0.846971 0.777059
ITEM: TIMESTEP
32
ITEM: NUMBER OF ATOMS
3
ITEM: BOX BOUNDS ff ff ff
-5.0000000000000000e+00 5.0000000000000000e+00
-5.0000000000000000e+00 5.0000000000000000e+00
-5.0000000000000000e+00 5.0000000000000000e+00
ITEM: ATOMS id type xs ys zs
1 1 0.508723 0.578396 0.905867
2 1 0.87979 0.902521 0.682225
3 1 0.863544 0.845398 0.777476
ITEM: TIMESTEP
33
ITEM: NUMBER OF ATOMS
3
ITEM: BOX BOUNDS ff ff ff
-5.0000000000000000e+00 5.0000000000000000e+00
-5.0000000000000000e+00 5.0000000000000000e+00
-5.0000000000000000e+00 5.0000000000000000e+00
ITEM: ATOMS id type xs ys zs
1 1 0.517513 0.585262 0.902185
2 1 0.877474 0.899869 0.684871
3 1 0.857071 0.841183 0.778511
ITEM: TIMESTEP
34
ITEM: NUMBER OF ATOMS
3
ITEM: BOX BOUNDS ff ff ff
-5.0000000000000000e+00 5.0000000000000000e+00
-5.0000000000000000e+00 5.0000000000000000e+00
-5.0000000000000000e+00 5.0000000000000000e+00
ITEM: ATOMS id type xs ys zs
1 1 0.5176 0.585329 0.902149
2 1 0.877451 0.899843 0.684897
3 1 0.857007 0.841142 0.778521
ITEM: TIMESTEP
35
ITEM: NUMBER OF ATOMS
3
ITEM: BOX BOUNDS ff ff ff
-5.0000000000000000e+00 5.0000000000000000e+00
-5.0000000000000000e+00 5.0000000000000000e+00
-5.0000000000000000e+00 5.0000000000000000e+00
ITEM: ATOMS id type xs ys zs
1 1 0.5276 0.593141 0.897961
2 1 0.874786 0.896744 0.68804
3 1 0.849671 0.83643 0.779567
ITEM: TIMESTEP
36
ITEM: NUMBER OF ATOMS
3
ITEM: BOX BOUNDS ff ff ff
-5.0000000000000000e+00 5.0000000000000000e+00
-5.0000000000000000e+00 5.0000000000000000e+00
-5.0000000000000000e+00 5.0000000000000000e+00
ITEM: ATOMS id type xs ys zs
1 1 0.527601 0.593141 0.89796
2 1 0.874757 0.896673 0.688147
3 1 0.8497 0.8365 0.77946
ITEM: TIMESTEP
37
ITEM: NUMBER OF ATOMS
3
ITEM: BOX BOUNDS ff ff ff
-5.0000000000000000e+00 5.0000000000000000e+00
-5.0000000000000000e+00 5.0000000000000000e+00
-5.0000000000000000e+00 5.0000000000000000e+00
ITEM: ATOMS id type xs ys zs
1 1 0.527602 0.593143 0.89796
2 1 0.874768 0.896699 0.688107
3 1 0.849688 0.836472 0.7795
ITEM: TIMESTEP
38
ITEM: NUMBER OF ATOMS
3
ITEM: BOX BOUNDS ff ff ff
-5.0000000000000000e+00 5.0000000000000000e+00
-5.0000000000000000e+00 5.0000000000000000e+00
-5.0000000000000000e+00 5.0000000000000000e+00
ITEM: ATOMS id type xs ys zs
1 1 0.527603 0.593143 0.897959
2 1 0.874764 0.896692 0.688118
3 1 0.84969 0.836479 0.779489
ITEM: TIMESTEP
39
ITEM: NUMBER OF ATOMS
3
ITEM: BOX BOUNDS ff ff ff
-5.0000000000000000e+00 5.0000000000000000e+00
-5.0000000000000000e+00 5.0000000000000000e+00
-5.0000000000000000e+00 5.0000000000000000e+00
ITEM: ATOMS id type xs ys zs
1 1 0.527603 0.593144 0.897959
2 1 0.874763 0.896688 0.688124
3 1 0.849691 0.836483 0.779484
ITEM: TIMESTEP
40
ITEM: NUMBER OF ATOMS
3
ITEM: BOX BOUNDS ff ff ff
-5.0000000000000000e+00 5.0000000000000000e+00
-5.0000000000000000e+00 5.0000000000000000e+00
-5.0000000000000000e+00 5.0000000000000000e+00
ITEM: ATOMS id type xs ys zs
1 1 0.527605 0.593145 0.897959
2 1 0.874762 0.896686 0.688126
3 1 0.849691 0.836483 0.779482
ITEM: TIMESTEP
41
ITEM: NUMBER OF ATOMS
3
ITEM: BOX BOUNDS ff ff ff
-5.0000000000000000e+00 5.0000000000000000e+00
-5.0000000000000000e+00 5.0000000000000000e+00
-5.0000000000000000e+00 5.0000000000000000e+00
ITEM: ATOMS id type xs ys zs
1 1 0.527768 0.593272 0.897891
2 1 0.874721 0.896637 0.688178
3 1 0.849568 0.836405 0.779498
ITEM: TIMESTEP
42
ITEM: NUMBER OF ATOMS
3
ITEM: BOX BOUNDS ff ff ff
-5.0000000000000000e+00 5.0000000000000000e+00
-5.0000000000000000e+00 5.0000000000000000e+00
-5.0000000000000000e+00 5.0000000000000000e+00
ITEM: ATOMS id type xs ys zs
1 1 0.52778 0.593281 0.897886
2 1 0.874717 0.896631 0.688185
3 1 0.84956 0.836402 0.779496
ITEM: TIMESTEP
43
ITEM: NUMBER OF ATOMS
3
ITEM: BOX BOUNDS ff ff ff
-5.0000000000000000e+00 5.0000000000000000e+00
-5.0000000000000000e+00 5.0000000000000000e+00
-5.0000000000000000e+00 5.0000000000000000e+00
ITEM: ATOMS id type xs ys zs
1 1 0.527799 0.593296 0.897878
2 1 0.874711 0.896623 0.688194
3 1 0.849547 0.836395 0.779494
ITEM: TIMESTEP
44
ITEM: NUMBER OF ATOMS
3
ITEM: BOX BOUNDS ff ff ff
-5.0000000000000000e+00 5.0000000000000000e+00
-5.0000000000000000e+00 5.0000000000000000e+00
-5.0000000000000000e+00 5.0000000000000000e+00
ITEM: ATOMS id type xs ys zs
1 1 0.532117 0.596659 0.89609
2 1 0.873611 0.895274 0.689631
3 1 0.846329 0.834382 0.779846
ITEM: TIMESTEP
45
ITEM: NUMBER OF ATOMS
3
ITEM: BOX BOUNDS ff ff ff
-5.0000000000000000e+00 5.0000000000000000e+00
-5.0000000000000000e+00 5.0000000000000000e+00
-5.0000000000000000e+00 5.0000000000000000e+00
ITEM: ATOMS id type xs ys zs
1 1 0.532118 0.59666 0.896089
2 1 0.873618 0.895288 0.689609
3 1 0.846321 0.834366 0.779869
ITEM: TIMESTEP
46
ITEM: NUMBER OF ATOMS
3
ITEM: BOX BOUNDS ff ff ff
-5.0000000000000000e+00 5.0000000000000000e+00
-5.0000000000000000e+00 5.0000000000000000e+00
-5.0000000000000000e+00 5.0000000000000000e+00
ITEM: ATOMS id type xs ys zs
1 1 0.532119 0.59666 0.896089
2 1 0.873616 0.895284 0.689616
3 1 0.846322 0.83437 0.779863
ITEM: TIMESTEP
47
ITEM: NUMBER OF ATOMS
3
ITEM: BOX BOUNDS ff ff ff
-5.0000000000000000e+00 5.0000000000000000e+00
-5.0000000000000000e+00 5.0000000000000000e+00
-5.0000000000000000e+00 5.0000000000000000e+00
ITEM: ATOMS id type xs ys zs
1 1 0.532121 0.596662 0.896088
2 1 0.873615 0.895282 0.689618
3 1 0.846322 0.83437 0.779861
ITEM: TIMESTEP
48
ITEM: NUMBER OF ATOMS
3
ITEM: BOX BOUNDS ff ff ff
-5.0000000000000000e+00 5.0000000000000000e+00
-5.0000000000000000e+00 5.0000000000000000e+00
-5.0000000000000000e+00 5.0000000000000000e+00
ITEM: ATOMS id type xs ys zs
1 1 0.532302 0.596803 0.896013
2 1 0.87357 0.895227 0.689676
3 1 0.846186 0.834284 0.779878
ITEM: TIMESTEP
49
ITEM: NUMBER OF ATOMS
3
ITEM: BOX BOUNDS ff ff ff
-5.0000000000000000e+00 5.0000000000000000e+00
-5.0000000000000000e+00 5.0000000000000000e+00
-5.0000000000000000e+00 5.0000000000000000e+00
ITEM: ATOMS id type xs ys zs
1 1 0.532319 0.596816 0.896006
2 1 0.873564 0.895219 0.689686
3 1 0.846175 0.83428 0.779874
ITEM: TIMESTEP
50
ITEM: NUMBER OF ATOMS
3
ITEM: BOX BOUNDS ff ff ff
-5.0000000000000000e+00 5.0000000000000000e+00
-5.0000000000000000e+00 5.0000000000000000e+00
-5.0000000000000000e+00 5.0000000000000000e+00
ITEM: ATOMS id type xs ys zs
1 1 0.532345 0.596836 0.895995
2 1 0.873556 0.895208 0.689699
3 1 0.846156 0.83427 0.779873
ITEM: TIMESTEP
51
ITEM: NUMBER OF ATOMS
3
ITEM: BOX BOUNDS ff ff ff
-5.0000000000000000e+00 5.0000000000000000e+00
-5.0000000000000000e+00 5.0000000000000000e+00
-5.0000000000000000e+00 5.0000000000000000e+00
ITEM: ATOMS id type xs ys zs
1 1 0.538346 0.601509 0.893511
2 1 0.872013 0.893296 0.691753
3 1 0.841698 0.831509 0.780303
ITEM: TIMESTEP
52
ITEM: NUMBER OF ATOMS
3
ITEM: BOX BOUNDS ff ff ff
-5.0000000000000000e+00 5.0000000000000000e+00
-5.0000000000000000e+00 5.0000000000000000e+00
-5.0000000000000000e+00 5.0000000000000000e+00
ITEM: ATOMS id type xs ys zs
1 1 0.540656 0.603308 0.892554
2 1 0.871439 0.8926 0.692486
3 1 0.839962 0.830406 0.780526
ITEM: TIMESTEP
53
ITEM: NUMBER OF ATOMS
3
ITEM: BOX BOUNDS ff ff ff
-5.0000000000000000e+00 5.0000000000000000e+00
-5.0000000000000000e+00 5.0000000000000000e+00
-5.0000000000000000e+00 5.0000000000000000e+00
ITEM: ATOMS id type xs ys zs
1 1 0.544722 0.606474 0.890871
2 1 0.870405 0.891327 0.693845
3 1 0.836931 0.828513 0.780851
ITEM: TIMESTEP
54
ITEM: NUMBER OF ATOMS
3
ITEM: BOX BOUNDS ff ff ff
-5.0000000000000000e+00 5.0000000000000000e+00
-5.0000000000000000e+00 5.0000000000000000e+00
-5.0000000000000000e+00 5.0000000000000000e+00
ITEM: ATOMS id type xs ys zs
1 1 0.544724 0.606476 0.89087
2 1 0.870374 0.89127 0.693923
3 1 0.836959 0.828568 0.780774
ITEM: TIMESTEP
55
ITEM: NUMBER OF ATOMS
3
ITEM: BOX BOUNDS ff ff ff
-5.0000000000000000e+00 5.0000000000000000e+00
-5.0000000000000000e+00 5.0000000000000000e+00
-5.0000000000000000e+00 5.0000000000000000e+00
ITEM: ATOMS id type xs ys zs
1 1 0.544726 0.606478 0.890869
2 1 0.870382 0.891284 0.693903
3 1 0.836949 0.828552 0.780795
ITEM: TIMESTEP
56
ITEM: NUMBER OF ATOMS
3
ITEM: BOX BOUNDS ff ff ff
-5.0000000000000000e+00 5.0000000000000000e+00
-5.0000000000000000e+00 5.0000000000000000e+00
-5.0000000000000000e+00 5.0000000000000000e+00
ITEM: ATOMS id type xs ys zs
1 1 0.544728 0.606479 0.890869
2 1 0.870379 0.89128 0.693909
3 1 0.83695 0.828556 0.780789
ITEM: TIMESTEP
57
ITEM: NUMBER OF ATOMS
3
ITEM: BOX BOUNDS ff ff ff
-5.0000000000000000e+00 5.0000000000000000e+00
-5.0000000000000000e+00 5.0000000000000000e+00
-5.0000000000000000e+00 5.0000000000000000e+00
ITEM: ATOMS id type xs ys zs
1 1 0.544734 0.606484 0.890866
2 1 0.870376 0.891275 0.693915
3 1 0.836947 0.828555 0.780786
ITEM: TIMESTEP
58
ITEM: NUMBER OF ATOMS
3
ITEM: BOX BOUNDS ff ff ff
-5.0000000000000000e+00 5.0000000000000000e+00
-5.0000000000000000e+00 5.0000000000000000e+00
-5.0000000000000000e+00 5.0000000000000000e+00
ITEM: ATOMS id type xs ys zs
1 1 0.545477 0.607063 0.890558
2 1 0.870185 0.891039 0.694167
3 1 0.836395 0.828212 0.780842
ITEM: TIMESTEP
59
ITEM: NUMBER OF ATOMS
3
ITEM: BOX BOUNDS ff ff ff
-5.0000000000000000e+00 5.0000000000000000e+00
-5.0000000000000000e+00 5.0000000000000000e+00
-5.0000000000000000e+00 5.0000000000000000e+00
ITEM: ATOMS id type xs ys zs
1 1 0.545533 0.607106 0.890535
2 1 0.870166 0.891014 0.694196
3 1 0.836358 0.828194 0.780836
ITEM: TIMESTEP
60
ITEM: NUMBER OF ATOMS
3
ITEM: BOX BOUNDS ff ff ff
-5.0000000000000000e+00 5.0000000000000000e+00
-5.0000000000000000e+00 5.0000000000000000e+00
-5.0000000000000000e+00 5.0000000000000000e+00
ITEM: ATOMS id type xs ys zs
1 1 0.545596 0.607155 0.890508
2 1 0.870147 0.890989 0.694225
3 1 0.836314 0.82817 0.780833
ITEM: TIMESTEP
61
ITEM: NUMBER OF ATOMS
3
ITEM: BOX BOUNDS ff ff ff
-5.0000000000000000e+00 5.0000000000000000e+00
-5.0000000000000000e+00 5.0000000000000000e+00
-5.0000000000000000e+00 5.0000000000000000e+00
ITEM: ATOMS id type xs ys zs
1 1 0.555596 0.614945 0.886363
2 1 0.867468 0.887624 0.697879
3 1 0.828993 0.823745 0.781324
ITEM: TIMESTEP
62
ITEM: NUMBER OF ATOMS
3
ITEM: BOX BOUNDS ff ff ff
-5.0000000000000000e+00 5.0000000000000000e+00
-5.0000000000000000e+00 5.0000000000000000e+00
-5.0000000000000000e+00 5.0000000000000000e+00
ITEM: ATOMS id type xs ys zs
1 1 0.565596 0.622735 0.882218
2 1 0.86483 0.884327 0.701445
3 1 0.821631 0.819253 0.781904
ITEM: TIMESTEP
63
ITEM: NUMBER OF ATOMS
3
ITEM: BOX BOUNDS ff ff ff
-5.0000000000000000e+00 5.0000000000000000e+00
-5.0000000000000000e+00 5.0000000000000000e+00
-5.0000000000000000e+00 5.0000000000000000e+00
ITEM: ATOMS id type xs ys zs
1 1 0.565597 0.622735 0.882218
2 1 0.86483 0.884328 0.701444
3 1 0.82163 0.819252 0.781905
ITEM: TIMESTEP
64
ITEM: NUMBER OF ATOMS
3
ITEM: BOX BOUNDS ff ff ff
-5.0000000000000000e+00 5.0000000000000000e+00
-5.0000000000000000e+00 5.0000000000000000e+00
-5.0000000000000000e+00 5.0000000000000000e+00
ITEM: ATOMS id type xs ys zs
1 1 0.565597 0.622735 0.882218
2 1 0.864832 0.88433 0.701442
3 1 0.821629 0.81925 0.781908
ITEM: TIMESTEP
65
ITEM: NUMBER OF ATOMS
3
ITEM: BOX BOUNDS ff ff ff
-5.0000000000000000e+00 5.0000000000000000e+00
-5.0000000000000000e+00 5.0000000000000000e+00
-5.0000000000000000e+00 5.0000000000000000e+00
ITEM: ATOMS id type xs ys zs
1 1 0.565597 0.622735 0.882217
2 1 0.864834 0.884333 0.701437
3 1 0.821626 0.819246 0.781912
ITEM: TIMESTEP
66
ITEM: NUMBER OF ATOMS
3
ITEM: BOX BOUNDS ff ff ff
-5.0000000000000000e+00 5.0000000000000000e+00
-5.0000000000000000e+00 5.0000000000000000e+00
-5.0000000000000000e+00 5.0000000000000000e+00
ITEM: ATOMS id type xs ys zs
1 1 0.565598 0.622736 0.882217
2 1 0.864838 0.88434 0.701429
3 1 0.821621 0.819239 0.78192
ITEM: TIMESTEP
67
ITEM: NUMBER OF ATOMS
3
ITEM: BOX BOUNDS ff ff ff
-5.0000000000000000e+00 5.0000000000000000e+00
-5.0000000000000000e+00 5.0000000000000000e+00
-5.0000000000000000e+00 5.0000000000000000e+00
ITEM: ATOMS id type xs ys zs
1 1 0.565605 0.622742 0.882214
2 1 0.864862 0.884377 0.701383
3 1 0.821589 0.819196 0.78197
ITEM: TIMESTEP
68
ITEM: NUMBER OF ATOMS
3
ITEM: BOX BOUNDS ff ff ff
-5.0000000000000000e+00 5.0000000000000000e+00
-5.0000000000000000e+00 5.0000000000000000e+00
-5.0000000000000000e+00 5.0000000000000000e+00
ITEM: ATOMS id type xs ys zs
1 1 0.565607 0.622743 0.882213
2 1 0.864856 0.884367 0.701395
3 1 0.821594 0.819204 0.781959
ITEM: TIMESTEP
69
ITEM: NUMBER OF ATOMS
3
ITEM: BOX BOUNDS ff ff ff
-5.0000000000000000e+00 5.0000000000000000e+00
-5.0000000000000000e+00 5.0000000000000000e+00
-5.0000000000000000e+00 5.0000000000000000e+00
ITEM: ATOMS id type xs ys zs
1 1 0.56561 0.622745 0.882212
2 1 0.86485 0.884358 0.701405
3 1 0.821598 0.819211 0.781949
ITEM: TIMESTEP
70
ITEM: NUMBER OF ATOMS
3
ITEM: BOX BOUNDS ff ff ff
-5.0000000000000000e+00 5.0000000000000000e+00
-5.0000000000000000e+00 5.0000000000000000e+00
-5.0000000000000000e+00 5.0000000000000000e+00
ITEM: ATOMS id type xs ys zs
1 1 0.565615 0.622749 0.88221
2 1 0.864845 0.884352 0.701413
3 1 0.821597 0.819213 0.781944
ITEM: TIMESTEP
71
ITEM: NUMBER OF ATOMS
3
ITEM: BOX BOUNDS ff ff ff
-5.0000000000000000e+00 5.0000000000000000e+00
-5.0000000000000000e+00 5.0000000000000000e+00
-5.0000000000000000e+00 5.0000000000000000e+00
ITEM: ATOMS id type xs ys zs
1 1 0.566203 0.623209 0.881963
2 1 0.864691 0.884167 0.701604
3 1 0.821164 0.818938 0.781999
ITEM: TIMESTEP
72
ITEM: NUMBER OF ATOMS
3
ITEM: BOX BOUNDS ff ff ff
-5.0000000000000000e+00 5.0000000000000000e+00
-5.0000000000000000e+00 5.0000000000000000e+00
-5.0000000000000000e+00 5.0000000000000000e+00
ITEM: ATOMS id type xs ys zs
1 1 0.566205 0.62321 0.881963
2 1 0.864684 0.884158 0.701616
3 1 0.821169 0.818947 0.781988
ITEM: TIMESTEP
73
ITEM: NUMBER OF ATOMS
3
ITEM: BOX BOUNDS ff ff ff
-5.0000000000000000e+00 5.0000000000000000e+00
-5.0000000000000000e+00 5.0000000000000000e+00
-5.0000000000000000e+00 5.0000000000000000e+00
ITEM: ATOMS id type xs ys zs
1 1 0.566208 0.623213 0.881961
2 1 0.864679 0.88415 0.701625
3 1 0.82117 0.818951 0.78198
ITEM: TIMESTEP
74
ITEM: NUMBER OF ATOMS
3
ITEM: BOX BOUNDS ff ff ff
-5.0000000000000000e+00 5.0000000000000000e+00
-5.0000000000000000e+00 5.0000000000000000e+00
-5.0000000000000000e+00 5.0000000000000000e+00
ITEM: ATOMS id type xs ys zs
1 1 0.56623 0.62323 0.881952
2 1 0.864668 0.884136 0.701642
3 1 0.821159 0.818949 0.781973
ITEM: TIMESTEP
75
ITEM: NUMBER OF ATOMS
3
ITEM: BOX BOUNDS ff ff ff
-5.0000000000000000e+00 5.0000000000000000e+00
-5.0000000000000000e+00 5.0000000000000000e+00
-5.0000000000000000e+00 5.0000000000000000e+00
ITEM: ATOMS id type xs ys zs
1 1 0.56868 0.625145 0.880924
2 1 0.863987 0.883314 0.702504
3 1 0.81939 0.817856 0.782139
ITEM: TIMESTEP
76
ITEM: NUMBER OF ATOMS
3
ITEM: BOX BOUNDS ff ff ff
-5.0000000000000000e+00 5.0000000000000000e+00
-5.0000000000000000e+00 5.0000000000000000e+00
-5.0000000000000000e+00 5.0000000000000000e+00
ITEM: ATOMS id type xs ys zs
1 1 0.569712 0.625951 0.880491
2 1 0.863652 0.882897 0.702954
3 1 0.818694 0.817466 0.782123
ITEM: TIMESTEP
77
ITEM: NUMBER OF ATOMS
3
ITEM: BOX BOUNDS ff ff ff
-5.0000000000000000e+00 5.0000000000000000e+00
-5.0000000000000000e+00 5.0000000000000000e+00
-5.0000000000000000e+00 5.0000000000000000e+00
ITEM: ATOMS id type xs ys zs
1 1 0.570853 0.626843 0.880012
2 1 0.8633 0.882463 0.703418
3 1 0.817904 0.817009 0.782137
ITEM: TIMESTEP
78
ITEM: NUMBER OF ATOMS
3
ITEM: BOX BOUNDS ff ff ff
-5.0000000000000000e+00 5.0000000000000000e+00
-5.0000000000000000e+00 5.0000000000000000e+00
-5.0000000000000000e+00 5.0000000000000000e+00
ITEM: ATOMS id type xs ys zs
1 1 0.580853 0.634659 0.875815
2 1 0.860382 0.878898 0.707198
3 1 0.810823 0.812758 0.782554
ITEM: TIMESTEP
79
ITEM: NUMBER OF ATOMS
3
ITEM: BOX BOUNDS ff ff ff
-5.0000000000000000e+00 5.0000000000000000e+00
-5.0000000000000000e+00 5.0000000000000000e+00
-5.0000000000000000e+00 5.0000000000000000e+00
ITEM: ATOMS id type xs ys zs
1 1 0.585928 0.638625 0.873685
2 1 0.859058 0.877299 0.708877
3 1 0.807072 0.810391 0.783005
ITEM: TIMESTEP
80
ITEM: NUMBER OF ATOMS
3
ITEM: BOX BOUNDS ff ff ff
-5.0000000000000000e+00 5.0000000000000000e+00
-5.0000000000000000e+00 5.0000000000000000e+00
-5.0000000000000000e+00 5.0000000000000000e+00
ITEM: ATOMS id type xs ys zs
1 1 0.592743 0.643952 0.870824
2 1 0.857152 0.874988 0.711313
3 1 0.802162 0.807375 0.78343
ITEM: TIMESTEP
81
ITEM: NUMBER OF ATOMS
3
ITEM: BOX BOUNDS ff ff ff
-5.0000000000000000e+00 5.0000000000000000e+00
-5.0000000000000000e+00 5.0000000000000000e+00
-5.0000000000000000e+00 5.0000000000000000e+00
ITEM: ATOMS id type xs ys zs
1 1 0.592761 0.643966 0.870816
2 1 0.856875 0.874647 0.711676
3 1 0.802421 0.807701 0.783075
ITEM: TIMESTEP
82
ITEM: NUMBER OF ATOMS
3
ITEM: BOX BOUNDS ff ff ff
-5.0000000000000000e+00 5.0000000000000000e+00
-5.0000000000000000e+00 5.0000000000000000e+00
-5.0000000000000000e+00 5.0000000000000000e+00
ITEM: ATOMS id type xs ys zs
1 1 0.592768 0.643972 0.870813
2 1 0.856908 0.874689 0.711632
3 1 0.80238 0.807654 0.783122
ITEM: TIMESTEP
83
ITEM: NUMBER OF ATOMS
3
ITEM: BOX BOUNDS ff ff ff
-5.0000000000000000e+00 5.0000000000000000e+00
-5.0000000000000000e+00 5.0000000000000000e+00
-5.0000000000000000e+00 5.0000000000000000e+00
ITEM: ATOMS id type xs ys zs
1 1 0.592771 0.643973 0.870812
2 1 0.856913 0.874694 0.711626
3 1 0.802374 0.807647 0.783129
ITEM: TIMESTEP
84
ITEM: NUMBER OF ATOMS
3
ITEM: BOX BOUNDS ff ff ff
-5.0000000000000000e+00 5.0000000000000000e+00
-5.0000000000000000e+00 5.0000000000000000e+00
-5.0000000000000000e+00 5.0000000000000000e+00
ITEM: ATOMS id type xs ys zs
1 1 0.592776 0.643978 0.87081
2 1 0.85692 0.874703 0.711617
3 1 0.802362 0.807634 0.78314
ITEM: TIMESTEP
85
ITEM: NUMBER OF ATOMS
3
ITEM: BOX BOUNDS ff ff ff
-5.0000000000000000e+00 5.0000000000000000e+00
-5.0000000000000000e+00 5.0000000000000000e+00
-5.0000000000000000e+00 5.0000000000000000e+00
ITEM: ATOMS id type xs ys zs
1 1 0.592805 0.644 0.870797
2 1 0.856939 0.874727 0.711589
3 1 0.802314 0.807587 0.78318
ITEM: TIMESTEP
86
ITEM: NUMBER OF ATOMS
3
ITEM: BOX BOUNDS ff ff ff
-5.0000000000000000e+00 5.0000000000000000e+00
-5.0000000000000000e+00 5.0000000000000000e+00
-5.0000000000000000e+00 5.0000000000000000e+00
ITEM: ATOMS id type xs ys zs
1 1 0.592812 0.644006 0.870794
2 1 0.856927 0.874713 0.711605
3 1 0.802318 0.807595 0.783168
ITEM: TIMESTEP
87
ITEM: NUMBER OF ATOMS
3
ITEM: BOX BOUNDS ff ff ff
-5.0000000000000000e+00 5.0000000000000000e+00
-5.0000000000000000e+00 5.0000000000000000e+00
-5.0000000000000000e+00 5.0000000000000000e+00
ITEM: ATOMS id type xs ys zs
1 1 0.592833 0.644023 0.870785
2 1 0.856909 0.874691 0.711627
3 1 0.802315 0.8076 0.783155
ITEM: TIMESTEP
88
ITEM: NUMBER OF ATOMS
3
ITEM: BOX BOUNDS ff ff ff
-5.0000000000000000e+00 5.0000000000000000e+00
-5.0000000000000000e+00 5.0000000000000000e+00
-5.0000000000000000e+00 5.0000000000000000e+00
ITEM: ATOMS id type xs ys zs
1 1 0.594313 0.645191 0.870141
2 1 0.856508 0.874245 0.712059
3 1 0.801236 0.806878 0.783367
ITEM: TIMESTEP
89
ITEM: NUMBER OF ATOMS
3
ITEM: BOX BOUNDS ff ff ff
-5.0000000000000000e+00 5.0000000000000000e+00
-5.0000000000000000e+00 5.0000000000000000e+00
-5.0000000000000000e+00 5.0000000000000000e+00
ITEM: ATOMS id type xs ys zs
1 1 0.604313 0.653082 0.865793
2 1 0.853328 0.870661 0.715582
3 1 0.794416 0.802571 0.784192
ITEM: TIMESTEP
90
ITEM: NUMBER OF ATOMS
3
ITEM: BOX BOUNDS ff ff ff
-5.0000000000000000e+00 5.0000000000000000e+00
-5.0000000000000000e+00 5.0000000000000000e+00
-5.0000000000000000e+00 5.0000000000000000e+00
ITEM: ATOMS id type xs ys zs
1 1 0.604347 0.653109 0.865778
2 1 0.853006 0.87029 0.715955