ITEM: TIMESTEP
0
ITEM: NUMBER OF ATOMS
5
ITEM: BOX BOUNDS ff ff ff
-5.0000000000000000e+00 5.0000000000000000e+00
-5.0000000000000000e+00 5.0000000000000000e+00
-5.0000000000000000e+00 5.0000000000000000e+00
ITEM: ATOMS id type xs ys zs
1 1 0.194519 0.284124 0.26782
2 1 0.258658 0.258759 0.966888
3 1 0.483763 0.612148 0.379391
4 1 0.427258 0.926552 0.555174
5 1 0.816225 0.294688 0.823306
ITEM: TIMESTEP
1
ITEM: NUMBER OF ATOMS
5
ITEM: BOX BOUNDS ff ff ff
-5.0000000000000000e+00 5.0000000000000000e+00
-5.0000000000000000e+00 5.0000000000000000e+00
-5.0000000000000000e+00 5.0000000000000000e+00
ITEM: ATOMS id type xs ys zs
1 1 0.194561 0.284171 0.26784
2 1 0.258669 0.258762 0.96688
3 1 0.483682 0.61234 0.379516
4 1 0.427301 0.926307 0.55504
5 1 0.81621 0.294691 0.823304
ITEM: TIMESTEP
2
ITEM: NUMBER OF ATOMS
5
ITEM: BOX BOUNDS ff ff ff
-5.0000000000000000e+00 5.0000000000000000e+00
-5.0000000000000000e+00 5.0000000000000000e+00
-5.0000000000000000e+00 5.0000000000000000e+00
ITEM: ATOMS id type xs ys zs
1 1 0.194603 0.284219 0.26786
2 1 0.258681 0.258765 0.966871
3 1 0.483599 0.612536 0.379644
4 1 0.427345 0.926057 0.554902
5 1 0.816195 0.294694 0.823302
ITEM: TIMESTEP
3
ITEM: NUMBER OF ATOMS
5
ITEM: BOX BOUNDS ff ff ff
-5.0000000000000000e+00 5.0000000000000000e+00
-5.0000000000000000e+00 5.0000000000000000e+00
-5.0000000000000000e+00 5.0000000000000000e+00
ITEM: ATOMS id type xs ys zs
1 1 0.194645 0.284267 0.26788
2 1 0.258693 0.258768 0.966863
3 1 0.483516 0.612735 0.379773
4 1 0.42739 0.925804 0.554763
5 1 0.81618 0.294697 0.8233
ITEM: TIMESTEP
4
ITEM: NUMBER OF ATOMS
5
ITEM: BOX BOUNDS ff ff ff
-5.0000000000000000e+00 5.0000000000000000e+00
-5.0000000000000000e+00 5.0000000000000000e+00
-5.0000000000000000e+00 5.0000000000000000e+00
ITEM: ATOMS id type xs ys zs
1 1 0.194687 0.284314 0.2679
2 1 0.258705 0.258771 0.966855
3 1 0.483433 0.612937 0.379904
4 1 0.427435 0.925549 0.554623
5 1 0.816164 0.2947 0.823298
ITEM: TIMESTEP
5
ITEM: NUMBER OF ATOMS
5
ITEM: BOX BOUNDS ff ff ff
-5.0000000000000000e+00 5.0000000000000000e+00
-5.0000000000000000e+00 5.0000000000000000e+00
-5.0000000000000000e+00 5.0000000000000000e+00
ITEM: ATOMS id type xs ys zs
1 1 0.19473 0.284362 0.26792
2 1 0.258716 0.258774 0.966847
3 1 0.483349 0.613141 0.380036
4 1 0.42748 0.925291 0.554481
5 1 0.816149 0.294703 0.823296
ITEM: TIMESTEP
6
ITEM: NUMBER OF ATOMS
5
ITEM: BOX BOUNDS ff ff ff
-5.0000000000000000e+00 5.0000000000000000e+00
-5.0000000000000000e+00 5.0000000000000000e+00
-5.0000000000000000e+00 5.0000000000000000e+00
ITEM: ATOMS id type xs ys zs
1 1 0.194771 0.28441 0.26794
2 1 0.258728 0.258777 0.966839
3 1 0.483264 0.613348 0.38017
4 1 0.427526 0.92503 0.554338
5 1 0.816134 0.294707 0.823294
ITEM: TIMESTEP
7
ITEM: NUMBER OF ATOMS
5
ITEM: BOX BOUNDS ff ff ff
-5.0000000000000000e+00 5.0000000000000000e+00
-5.0000000000000000e+00 5.0000000000000000e+00
-5.0000000000000000e+00 5.0000000000000000e+00
ITEM: ATOMS id type xs ys zs
1 1 0.194813 0.284458 0.26796
2 1 0.25874 0.25878 0.96683
3 1 0.48318 0.613558 0.380305
4 1 0.427572 0.924767 0.554193
5 1 0.816119 0.29471 0.823292
ITEM: TIMESTEP
8
ITEM: NUMBER OF ATOMS
5
ITEM: BOX BOUNDS ff ff ff
-5.0000000000000000e+00 5.0000000000000000e+00
-5.0000000000000000e+00 5.0000000000000000e+00
-5.0000000000000000e+00 5.0000000000000000e+00
ITEM: ATOMS id type xs ys zs
1 1 0.194855 0.284505 0.26798
2 1 0.258752 0.258783 0.966822
3 1 0.483094 0.613771 0.380442
4 1 0.427619 0.9245 0.554046
5 1 0.816103 0.294713 0.82329
ITEM: TIMESTEP
9
ITEM: NUMBER OF ATOMS
5
ITEM: BOX BOUNDS ff ff ff
-5.0000000000000000e+00 5.0000000000000000e+00
-5.0000000000000000e+00 5.0000000000000000e+00
-5.0000000000000000e+00 5.0000000000000000e+00
ITEM: ATOMS id type xs ys zs
1 1 0.194897 0.284553 0.268
2 1 0.258763 0.258786 0.966814
3 1 0.483009 0.613986 0.380581
4 1 0.427666 0.924231 0.553898
5 1 0.816088 0.294716 0.823288
ITEM: TIMESTEP
10
ITEM: NUMBER OF ATOMS
5
ITEM: BOX BOUNDS ff ff ff
-5.0000000000000000e+00 5.0000000000000000e+00
-5.0000000000000000e+00 5.0000000000000000e+00
-5.0000000000000000e+00 5.0000000000000000e+00
ITEM: ATOMS id type xs ys zs
1 1 0.194939 0.284601 0.26802
2 1 0.258775 0.258789 0.966806
3 1 0.482923 0.614205 0.380721
4 1 0.427713 0.923958 0.553748
5 1 0.816073 0.294719 0.823286
ITEM: TIMESTEP
11
ITEM: NUMBER OF ATOMS
5
ITEM: BOX BOUNDS ff ff ff
-5.0000000000000000e+00 5.0000000000000000e+00
-5.0000000000000000e+00 5.0000000000000000e+00
-5.0000000000000000e+00 5.0000000000000000e+00
ITEM: ATOMS id type xs ys zs
1 1 0.194981 0.284648 0.26804
2 1 0.258787 0.258792 0.966797
3 1 0.482836 0.614427 0.380863
4 1 0.427762 0.923682 0.553596
5 1 0.816058 0.294722 0.823284
ITEM: TIMESTEP
12
ITEM: NUMBER OF ATOMS
5
ITEM: BOX BOUNDS ff ff ff
-5.0000000000000000e+00 5.0000000000000000e+00
-5.0000000000000000e+00 5.0000000000000000e+00
-5.0000000000000000e+00 5.0000000000000000e+00
ITEM: ATOMS id type xs ys zs
1 1 0.195022 0.284696 0.268059
2 1 0.258799 0.258794 0.966789
3 1 0.482749 0.614652 0.381007
4 1 0.42781 0.923404 0.553443
5 1 0.816042 0.294725 0.823282
ITEM: TIMESTEP
13
ITEM: NUMBER OF ATOMS
5
ITEM: BOX BOUNDS ff ff ff
-5.0000000000000000e+00 5.0000000000000000e+00
-5.0000000000000000e+00 5.0000000000000000e+00
-5.0000000000000000e+00 5.0000000000000000e+00
ITEM: ATOMS id type xs ys zs
1 1 0.195064 0.284743 0.268079
2 1 0.258811 0.258797 0.966781
3 1 0.482662 0.614881 0.381152
4 1 0.42786 0.923121 0.553288
5 1 0.816027 0.294728 0.82328
ITEM: TIMESTEP
14
ITEM: NUMBER OF ATOMS
5
ITEM: BOX BOUNDS ff ff ff
-5.0000000000000000e+00 5.0000000000000000e+00
-5.0000000000000000e+00 5.0000000000000000e+00
-5.0000000000000000e+00 5.0000000000000000e+00
ITEM: ATOMS id type xs ys zs
1 1 0.195105 0.284791 0.268099
2 1 0.258822 0.2588 0.966772
3 1 0.482574 0.615113 0.3813
4 1 0.42791 0.922836 0.553131
5 1 0.816012 0.294731 0.823278
ITEM: TIMESTEP
15
ITEM: NUMBER OF ATOMS
5
ITEM: BOX BOUNDS ff ff ff
-5.0000000000000000e+00 5.0000000000000000e+00
-5.0000000000000000e+00 5.0000000000000000e+00
-5.0000000000000000e+00 5.0000000000000000e+00
ITEM: ATOMS id type xs ys zs
1 1 0.195146 0.284838 0.268119
2 1 0.258834 0.258803 0.966764
3 1 0.482487 0.615346 0.381447
4 1 0.427959 0.92255 0.552974
5 1 0.815997 0.294734 0.823276
ITEM: TIMESTEP
16
ITEM: NUMBER OF ATOMS
5
ITEM: BOX BOUNDS ff ff ff
-5.0000000000000000e+00 5.0000000000000000e+00
-5.0000000000000000e+00 5.0000000000000000e+00
-5.0000000000000000e+00 5.0000000000000000e+00
ITEM: ATOMS id type xs ys zs
1 1 0.195188 0.284885 0.268139
2 1 0.258846 0.258806 0.966756
3 1 0.482398 0.615585 0.381598
4 1 0.42801 0.922258 0.552813
5 1 0.815982 0.294737 0.823274
ITEM: TIMESTEP
17
ITEM: NUMBER OF ATOMS
5
ITEM: BOX BOUNDS ff ff ff
-5.0000000000000000e+00 5.0000000000000000e+00
-5.0000000000000000e+00 5.0000000000000000e+00
-5.0000000000000000e+00 5.0000000000000000e+00
ITEM: ATOMS id type xs ys zs
1 1 0.195229 0.284933 0.268159
2 1 0.258858 0.258809 0.966748
3 1 0.482308 0.615827 0.381752
4 1 0.428062 0.921961 0.55265
5 1 0.815966 0.29474 0.823272
ITEM: TIMESTEP
18
ITEM: NUMBER OF ATOMS
5
ITEM: BOX BOUNDS ff ff ff
-5.0000000000000000e+00 5.0000000000000000e+00
-5.0000000000000000e+00 5.0000000000000000e+00
-5.0000000000000000e+00 5.0000000000000000e+00
ITEM: ATOMS id type xs ys zs
1 1 0.19527 0.28498 0.268179
2 1 0.25887 0.258812 0.966739
3 1 0.482218 0.616074 0.381907
4 1 0.428114 0.921661 0.552484
5 1 0.815951 0.294744 0.82327
ITEM: TIMESTEP
19
ITEM: NUMBER OF ATOMS
5
ITEM: BOX BOUNDS ff ff ff
-5.0000000000000000e+00 5.0000000000000000e+00
-5.0000000000000000e+00 5.0000000000000000e+00
-5.0000000000000000e+00 5.0000000000000000e+00
ITEM: ATOMS id type xs ys zs
1 1 0.195311 0.285028 0.268199
2 1 0.258881 0.258815 0.966731
3 1 0.482128 0.616324 0.382065
4 1 0.428167 0.921357 0.552317
5 1 0.815936 0.294747 0.823268
ITEM: TIMESTEP
20
ITEM: NUMBER OF ATOMS
5
ITEM: BOX BOUNDS ff ff ff
-5.0000000000000000e+00 5.0000000000000000e+00
-5.0000000000000000e+00 5.0000000000000000e+00
-5.0000000000000000e+00 5.0000000000000000e+00
ITEM: ATOMS id type xs ys zs
1 1 0.195353 0.285075 0.268219
2 1 0.258893 0.258818 0.966723
3 1 0.482037 0.616579 0.382225
4 1 0.428221 0.921049 0.552148
5 1 0.81592 0.29475 0.823266
ITEM: TIMESTEP
21
ITEM: NUMBER OF ATOMS
5
ITEM: BOX BOUNDS ff ff ff
-5.0000000000000000e+00 5.0000000000000000e+00
-5.0000000000000000e+00 5.0000000000000000e+00
-5.0000000000000000e+00 5.0000000000000000e+00
ITEM: ATOMS id type xs ys zs
1 1 0.195394 0.285122 0.268239
2 1 0.258905 0.258821 0.966715
3 1 0.481945 0.616838 0.382387
4 1 0.428275 0.920737 0.551976
5 1 0.815905 0.294753 0.823264
ITEM: TIMESTEP
22
ITEM: NUMBER OF ATOMS
5
ITEM: BOX BOUNDS ff ff ff
-5.0000000000000000e+00 5.0000000000000000e+00
-5.0000000000000000e+00 5.0000000000000000e+00
-5.0000000000000000e+00 5.0000000000000000e+00
ITEM: ATOMS id type xs ys zs
1 1 0.195434 0.28517 0.268259
2 1 0.258917 0.258824 0.966706
3 1 0.481852 0.617101 0.382551
4 1 0.42833 0.920421 0.551802
5 1 0.81589 0.294756 0.823262
ITEM: TIMESTEP
23
ITEM: NUMBER OF ATOMS
5
ITEM: BOX BOUNDS ff ff ff
-5.0000000000000000e+00 5.0000000000000000e+00
-5.0000000000000000e+00 5.0000000000000000e+00
-5.0000000000000000e+00 5.0000000000000000e+00
ITEM: ATOMS id type xs ys zs
1 1 0.195475 0.285217 0.268279
2 1 0.258929 0.258827 0.966698
3 1 0.481759 0.617368 0.382718
4 1 0.428386 0.9201 0.551625
5 1 0.815874 0.294759 0.82326
ITEM: TIMESTEP
24
ITEM: NUMBER OF ATOMS
5
ITEM: BOX BOUNDS ff ff ff
-5.0000000000000000e+00 5.0000000000000000e+00
-5.0000000000000000e+00 5.0000000000000000e+00
-5.0000000000000000e+00 5.0000000000000000e+00
ITEM: ATOMS id type xs ys zs
1 1 0.195516 0.285264 0.268299
2 1 0.258941 0.25883 0.96669
3 1 0.481666 0.61764 0.382888
4 1 0.428442 0.919775 0.551446
5 1 0.815859 0.294762 0.823258
ITEM: TIMESTEP
25
ITEM: NUMBER OF ATOMS
5
ITEM: BOX BOUNDS ff ff ff
-5.0000000000000000e+00 5.0000000000000000e+00
-5.0000000000000000e+00 5.0000000000000000e+00
-5.0000000000000000e+00 5.0000000000000000e+00
ITEM: ATOMS id type xs ys zs
1 1 0.195557 0.285311 0.268319
2 1 0.258953 0.258833 0.966681
3 1 0.481571 0.617917 0.38306
4 1 0.428499 0.919445 0.551264
5 1 0.815844 0.294765 0.823256
ITEM: TIMESTEP
26
ITEM: NUMBER OF ATOMS
5
ITEM: BOX BOUNDS ff ff ff
-5.0000000000000000e+00 5.0000000000000000e+00
-5.0000000000000000e+00 5.0000000000000000e+00
-5.0000000000000000e+00 5.0000000000000000e+00
ITEM: ATOMS id type xs ys zs
1 1 0.195597 0.285358 0.268339
2 1 0.258965 0.258836 0.966673
3 1 0.481476 0.618198 0.383235
4 1 0.428557 0.91911 0.55108
5 1 0.815828 0.294769 0.823254
ITEM: TIMESTEP
27
ITEM: NUMBER OF ATOMS
5
ITEM: BOX BOUNDS ff ff ff
-5.0000000000000000e+00 5.0000000000000000e+00
-5.0000000000000000e+00 5.0000000000000000e+00
-5.0000000000000000e+00 5.0000000000000000e+00
ITEM: ATOMS id type xs ys zs
1 1 0.195638 0.285405 0.268359
2 1 0.258977 0.258839 0.966665
3 1 0.48138 0.618485 0.383412
4 1 0.428616 0.91877 0.550893
5 1 0.815813 0.294772 0.823252
ITEM: TIMESTEP
28
ITEM: NUMBER OF ATOMS
5
ITEM: BOX BOUNDS ff ff ff
-5.0000000000000000e+00 5.0000000000000000e+00
-5.0000000000000000e+00 5.0000000000000000e+00
-5.0000000000000000e+00 5.0000000000000000e+00
ITEM: ATOMS id type xs ys zs
1 1 0.195678 0.285452 0.268379
2 1 0.258988 0.258842 0.966656
3 1 0.481284 0.618777 0.383592
4 1 0.428675 0.918425 0.550703
5 1 0.815797 0.294775 0.82325
ITEM: TIMESTEP
29
ITEM: NUMBER OF ATOMS
5
ITEM: BOX BOUNDS ff ff ff
-5.0000000000000000e+00 5.0000000000000000e+00
-5.0000000000000000e+00 5.0000000000000000e+00
-5.0000000000000000e+00 5.0000000000000000e+00
ITEM: ATOMS id type xs ys zs
1 1 0.195719 0.285499 0.268399
2 1 0.259 0.258845 0.966648
3 1 0.481186 0.619074 0.383776
4 1 0.428736 0.918075 0.55051
5 1 0.815782 0.294778 0.823248
ITEM: TIMESTEP
30
ITEM: NUMBER OF ATOMS
5
ITEM: BOX BOUNDS ff ff ff
-5.0000000000000000e+00 5.0000000000000000e+00
-5.0000000000000000e+00 5.0000000000000000e+00
-5.0000000000000000e+00 5.0000000000000000e+00
ITEM: ATOMS id type xs ys zs
1 1 0.195758 0.285546 0.268418
2 1 0.259012 0.258848 0.96664
3 1 0.48109 0.619372 0.383959
4 1 0.428796 0.917725 0.550317
5 1 0.815767 0.294781 0.823246
ITEM: TIMESTEP
31
ITEM: NUMBER OF ATOMS
5
ITEM: BOX BOUNDS ff ff ff
-5.0000000000000000e+00 5.0000000000000000e+00
-5.0000000000000000e+00 5.0000000000000000e+00
-5.0000000000000000e+00 5.0000000000000000e+00
ITEM: ATOMS id type xs ys zs
1 1 0.195798 0.285592 0.268438
2 1 0.259024 0.258851 0.966631
3 1 0.480991 0.61968 0.384148
4 1 0.428859 0.917364 0.550118
5 1 0.815751 0.294784 0.823244
ITEM: TIMESTEP
32
ITEM: NUMBER OF ATOMS
5
ITEM: BOX BOUNDS ff ff ff
-5.0000000000000000e+00 5.0000000000000000e+00
-5.0000000000000000e+00 5.0000000000000000e+00
-5.0000000000000000e+00 5.0000000000000000e+00
ITEM: ATOMS id type xs ys zs
1 1 0.195838 0.285639 0.268458
2 1 0.259036 0.258854 0.966623
3 1 0.480891 0.619994 0.384341
4 1 0.428922 0.916996 0.549916
5 1 0.815736 0.294787 0.823242
ITEM: TIMESTEP
33
ITEM: NUMBER OF ATOMS
5
ITEM: BOX BOUNDS ff ff ff
-5.0000000000000000e+00 5.0000000000000000e+00
-5.0000000000000000e+00 5.0000000000000000e+00
-5.0000000000000000e+00 5.0000000000000000e+00
ITEM: ATOMS id type xs ys zs
1 1 0.195878 0.285686 0.268478
2 1 0.259048 0.258857 0.966614
3 1 0.48079 0.620315 0.384537
4 1 0.428986 0.916623 0.54971
5 1 0.815721 0.29479 0.82324
ITEM: TIMESTEP
34
ITEM: NUMBER OF ATOMS
5
ITEM: BOX BOUNDS ff ff ff
-5.0000000000000000e+00 5.0000000000000000e+00
-5.0000000000000000e+00 5.0000000000000000e+00
-5.0000000000000000e+00 5.0000000000000000e+00
ITEM: ATOMS id type xs ys zs
1 1 0.195918 0.285733 0.268498
2 1 0.25906 0.25886 0.966606
3 1 0.480688 0.620642 0.384737
4 1 0.429052 0.916243 0.549501
5 1 0.815705 0.294794 0.823238
ITEM: TIMESTEP
35
ITEM: NUMBER OF ATOMS
5
ITEM: BOX BOUNDS ff ff ff
-5.0000000000000000e+00 5.0000000000000000e+00
-5.0000000000000000e+00 5.0000000000000000e+00
-5.0000000000000000e+00 5.0000000000000000e+00
ITEM: ATOMS id type xs ys zs
1 1 0.195958 0.285779 0.268518
2 1 0.259072 0.258863 0.966598
3 1 0.480586 0.620975 0.38494
4 1 0.429118 0.915857 0.549288
5 1 0.81569 0.294797 0.823236
ITEM: TIMESTEP
36
ITEM: NUMBER OF ATOMS
5
ITEM: BOX BOUNDS ff ff ff
-5.0000000000000000e+00 5.0000000000000000e+00
-5.0000000000000000e+00 5.0000000000000000e+00
-5.0000000000000000e+00 5.0000000000000000e+00
ITEM: ATOMS id type xs ys zs
1 1 0.195997 0.285826 0.268538
2 1 0.259084 0.258866 0.966589
3 1 0.480482 0.621316 0.385147
4 1 0.429186 0.915464 0.549071
5 1 0.815674 0.2948 0.823234
ITEM: TIMESTEP
37
ITEM: NUMBER OF ATOMS
5
ITEM: BOX BOUNDS ff ff ff
-5.0000000000000000e+00 5.0000000000000000e+00
-5.0000000000000000e+00 5.0000000000000000e+00
-5.0000000000000000e+00 5.0000000000000000e+00
ITEM: ATOMS id type xs ys zs
1 1 0.196037 0.285872 0.268558
2 1 0.259096 0.25887 0.966581
3 1 0.480377 0.621663 0.385358
4 1 0.429255 0.915063 0.548851
5 1 0.815659 0.294803 0.823232
ITEM: TIMESTEP
38
ITEM: NUMBER OF ATOMS
5
ITEM: BOX BOUNDS ff ff ff
-5.0000000000000000e+00 5.0000000000000000e+00
-5.0000000000000000e+00 5.0000000000000000e+00
-5.0000000000000000e+00 5.0000000000000000e+00
ITEM: ATOMS id type xs ys zs
1 1 0.196076 0.285919 0.268577
2 1 0.259108 0.258873 0.966572
3 1 0.480271 0.622018 0.385573
4 1 0.429325 0.914655 0.548626
5 1 0.815643 0.294806 0.82323
ITEM: TIMESTEP
39
ITEM: NUMBER OF ATOMS
5
ITEM: BOX BOUNDS ff ff ff
-5.0000000000000000e+00 5.0000000000000000e+00
-5.0000000000000000e+00 5.0000000000000000e+00
-5.0000000000000000e+00 5.0000000000000000e+00
ITEM: ATOMS id type xs ys zs
1 1 0.196115 0.285965 0.268597
2 1 0.25912 0.258876 0.966564
3 1 0.480164 0.622381 0.385793
4 1 0.429396 0.91424 0.548397
5 1 0.815628 0.294809 0.823228
ITEM: TIMESTEP
40
ITEM: NUMBER OF ATOMS
5
ITEM: BOX BOUNDS ff ff ff
-5.0000000000000000e+00 5.0000000000000000e+00
-5.0000000000000000e+00 5.0000000000000000e+00
-5.0000000000000000e+00 5.0000000000000000e+00
ITEM: ATOMS id type xs ys zs
1 1 0.196155 0.286011 0.268617
2 1 0.259132 0.258879 0.966556
3 1 0.480056 0.622753 0.386017
4 1 0.429469 0.913816 0.548164
5 1 0.815612 0.294813 0.823226
ITEM: TIMESTEP
41
ITEM: NUMBER OF ATOMS
5
ITEM: BOX BOUNDS ff ff ff
-5.0000000000000000e+00 5.0000000000000000e+00
-5.0000000000000000e+00 5.0000000000000000e+00
-5.0000000000000000e+00 5.0000000000000000e+00
ITEM: ATOMS id type xs ys zs
1 1 0.196194 0.286057 0.268637
2 1 0.259144 0.258882 0.966547
3 1 0.479946 0.623132 0.386246
4 1 0.429543 0.913384 0.547925
5 1 0.815597 0.294816 0.823225
ITEM: TIMESTEP
42
ITEM: NUMBER OF ATOMS
5
ITEM: BOX BOUNDS ff ff ff
-5.0000000000000000e+00 5.0000000000000000e+00
-5.0000000000000000e+00 5.0000000000000000e+00
-5.0000000000000000e+00 5.0000000000000000e+00
ITEM: ATOMS id type xs ys zs
1 1 0.196232 0.286103 0.268657
2 1 0.259156 0.258885 0.966539
3 1 0.479835 0.623521 0.386479
4 1 0.429618 0.912943 0.547682
5 1 0.815581 0.294819 0.823223
ITEM: TIMESTEP
43
ITEM: NUMBER OF ATOMS
5
ITEM: BOX BOUNDS ff ff ff
-5.0000000000000000e+00 5.0000000000000000e+00
-5.0000000000000000e+00 5.0000000000000000e+00
-5.0000000000000000e+00 5.0000000000000000e+00
ITEM: ATOMS id type xs ys zs
1 1 0.196271 0.286149 0.268677
2 1 0.259168 0.258888 0.96653
3 1 0.479723 0.623918 0.386718
4 1 0.429696 0.912493 0.547434
5 1 0.815566 0.294822 0.823221
ITEM: TIMESTEP
44
ITEM: NUMBER OF ATOMS
5
ITEM: BOX BOUNDS ff ff ff
-5.0000000000000000e+00 5.0000000000000000e+00
-5.0000000000000000e+00 5.0000000000000000e+00
-5.0000000000000000e+00 5.0000000000000000e+00
ITEM: ATOMS id type xs ys zs
1 1 0.19631 0.286195 0.268696
2 1 0.25918 0.258891 0.966522
3 1 0.479609 0.624326 0.386962
4 1 0.429774 0.912034 0.547181
5 1 0.81555 0.294825 0.823219
ITEM: TIMESTEP
45
ITEM: NUMBER OF ATOMS
5
ITEM: BOX BOUNDS ff ff ff
-5.0000000000000000e+00 5.0000000000000000e+00
-5.0000000000000000e+00 5.0000000000000000e+00
-5.0000000000000000e+00 5.0000000000000000e+00
ITEM: ATOMS id type xs ys zs
1 1 0.196347 0.28624 0.268716
2 1 0.259192 0.258894 0.966513
3 1 0.479497 0.624735 0.387206
4 1 0.429853 0.911574 0.546928
5 1 0.815535 0.294828 0.823217
ITEM: TIMESTEP
46
ITEM: NUMBER OF ATOMS
5
ITEM: BOX BOUNDS ff ff ff
-5.0000000000000000e+00 5.0000000000000000e+00
-5.0000000000000000e+00 5.0000000000000000e+00
-5.0000000000000000e+00 5.0000000000000000e+00
ITEM: ATOMS id type xs ys zs
1 1 0.196386 0.286286 0.268735
2 1 0.259204 0.258897 0.966505
3 1 0.47938 0.625162 0.387461
4 1 0.429935 0.911095 0.546663
5 1 0.815519 0.294832 0.823215
ITEM: TIMESTEP
47
ITEM: NUMBER OF ATOMS
5
ITEM: BOX BOUNDS ff ff ff
-5.0000000000000000e+00 5.0000000000000000e+00
-5.0000000000000000e+00 5.0000000000000000e+00
-5.0000000000000000e+00 5.0000000000000000e+00
ITEM: ATOMS id type xs ys zs
1 1 0.196424 0.286331 0.268755
2 1 0.259216 0.2589 0.966497
3 1 0.479261 0.625602 0.387723
4 1 0.430019 0.910603 0.546392
5 1 0.815504 0.294835 0.823213
ITEM: TIMESTEP
48
ITEM: NUMBER OF ATOMS
5
ITEM: BOX BOUNDS ff ff ff
-5.0000000000000000e+00 5.0000000000000000e+00
-5.0000000000000000e+00 5.0000000000000000e+00
-5.0000000000000000e+00 5.0000000000000000e+00
ITEM: ATOMS id type xs ys zs
1 1 0.196462 0.286377 0.268775
2 1 0.259228 0.258903 0.966488
3 1 0.479141 0.626053 0.387991
4 1 0.430104 0.9101 0.546115
5 1 0.815488 0.294838 0.823211
ITEM: TIMESTEP
49
ITEM: NUMBER OF ATOMS
5
ITEM: BOX BOUNDS ff ff ff
-5.0000000000000000e+00 5.0000000000000000e+00
-5.0000000000000000e+00 5.0000000000000000e+00
-5.0000000000000000e+00 5.0000000000000000e+00
ITEM: ATOMS id type xs ys zs
1 1 0.1965 0.286422 0.268795
2 1 0.25924 0.258907 0.966479
3 1 0.479019 0.626517 0.388266
4 1 0.430192 0.909585 0.54583
5 1 0.815472 0.294841 0.823209
ITEM: TIMESTEP
50
ITEM: NUMBER OF ATOMS
5
ITEM: BOX BOUNDS ff ff ff
-5.0000000000000000e+00 5.0000000000000000e+00
-5.0000000000000000e+00 5.0000000000000000e+00
-5.0000000000000000e+00 5.0000000000000000e+00
ITEM: ATOMS id type xs ys zs
1 1 0.196537 0.286467 0.268814
2 1 0.259253 0.25891 0.966471
3 1 0.478894 0.626993 0.388548
4 1 0.430282 0.909056 0.545539
5 1 0.815457 0.294845 0.823207
ITEM: TIMESTEP
51
ITEM: NUMBER OF ATOMS
5
ITEM: BOX BOUNDS ff ff ff
-5.0000000000000000e+00 5.0000000000000000e+00
-5.0000000000000000e+00 5.0000000000000000e+00
-5.0000000000000000e+00 5.0000000000000000e+00
ITEM: ATOMS id type xs ys zs
1 1 0.196575 0.286513 0.268834
2 1 0.259265 0.258913 0.966462
3 1 0.478768 0.627484 0.388838
4 1 0.430375 0.908514 0.545239
5 1 0.815441 0.294848 0.823206
ITEM: TIMESTEP
52
ITEM: NUMBER OF ATOMS
5
ITEM: BOX BOUNDS ff ff ff
-5.0000000000000000e+00 5.0000000000000000e+00
-5.0000000000000000e+00 5.0000000000000000e+00
-5.0000000000000000e+00 5.0000000000000000e+00
ITEM: ATOMS id type xs ys zs
1 1 0.196612 0.286558 0.268854
2 1 0.259277 0.258916 0.966454
3 1 0.478639 0.62799 0.389136
4 1 0.43047 0.907957 0.544932
5 1 0.815426 0.294851 0.823204
ITEM: TIMESTEP
53
ITEM: NUMBER OF ATOMS
5
ITEM: BOX BOUNDS ff ff ff
-5.0000000000000000e+00 5.0000000000000000e+00
-5.0000000000000000e+00 5.0000000000000000e+00
-5.0000000000000000e+00 5.0000000000000000e+00
ITEM: ATOMS id type xs ys zs
1 1 0.196649 0.286603 0.268873
2 1 0.259289 0.258919 0.966445
3 1 0.478508 0.628511 0.389443
4 1 0.430567 0.907385 0.544616
5 1 0.81541 0.294854 0.823202
ITEM: TIMESTEP
54
ITEM: NUMBER OF ATOMS
5
ITEM: BOX BOUNDS ff ff ff
-5.0000000000000000e+00 5.0000000000000000e+00
-5.0000000000000000e+00 5.0000000000000000e+00
-5.0000000000000000e+00 5.0000000000000000e+00
ITEM: ATOMS id type xs ys zs
1 1 0.196686 0.286647 0.268893
2 1 0.259301 0.258922 0.966437
3 1 0.478375 0.629049 0.389759
4 1 0.430667 0.906796 0.544291
5 1 0.815394 0.294857 0.8232
ITEM: TIMESTEP
55
ITEM: NUMBER OF ATOMS
5
ITEM: BOX BOUNDS ff ff ff
-5.0000000000000000e+00 5.0000000000000000e+00
-5.0000000000000000e+00 5.0000000000000000e+00
-5.0000000000000000e+00 5.0000000000000000e+00
ITEM: ATOMS id type xs ys zs
1 1 0.196723 0.286692 0.268912
2 1 0.259313 0.258926 0.966428
3 1 0.478238 0.629604 0.390085
4 1 0.43077 0.906189 0.543956
5 1 0.815378 0.294861 0.823198
ITEM: TIMESTEP
56
ITEM: NUMBER OF ATOMS
5
ITEM: BOX BOUNDS ff ff ff
-5.0000000000000000e+00 5.0000000000000000e+00
-5.0000000000000000e+00 5.0000000000000000e+00
-5.0000000000000000e+00 5.0000000000000000e+00
ITEM: ATOMS id type xs ys zs
1 1 0.19676 0.286737 0.268932
2 1 0.259326 0.258929 0.96642
3 1 0.478099 0.630179 0.390421
4 1 0.430876 0.905564 0.543611
5 1 0.815363 0.294864 0.823196
ITEM: TIMESTEP
57
ITEM: NUMBER OF ATOMS
5
ITEM: BOX BOUNDS ff ff ff
-5.0000000000000000e+00 5.0000000000000000e+00
-5.0000000000000000e+00 5.0000000000000000e+00
-5.0000000000000000e+00 5.0000000000000000e+00
ITEM: ATOMS id type xs ys zs
1 1 0.196796 0.286781 0.268952
2 1 0.259338 0.258932 0.966411
3 1 0.477956 0.630773 0.390768
4 1 0.430986 0.904918 0.543255
5 1 0.815347 0.294867 0.823194
ITEM: TIMESTEP
58
ITEM: NUMBER OF ATOMS
5
ITEM: BOX BOUNDS ff ff ff
-5.0000000000000000e+00 5.0000000000000000e+00
-5.0000000000000000e+00 5.0000000000000000e+00
-5.0000000000000000e+00 5.0000000000000000e+00
ITEM: ATOMS id type xs ys zs
1 1 0.196832 0.286825 0.268971
2 1 0.25935 0.258935 0.966402
3 1 0.477811 0.63139 0.391128
4 1 0.431099 0.904251 0.542886
5 1 0.815331 0.294871 0.823192
ITEM: TIMESTEP
59
ITEM: NUMBER OF ATOMS
5
ITEM: BOX BOUNDS ff ff ff
-5.0000000000000000e+00 5.0000000000000000e+00
-5.0000000000000000e+00 5.0000000000000000e+00
-5.0000000000000000e+00 5.0000000000000000e+00
ITEM: ATOMS id type xs ys zs
1 1 0.196868 0.286869 0.268991
2 1 0.259363 0.258938 0.966394
3 1 0.477661 0.632029 0.3915
4 1 0.431216 0.903561 0.542505
5 1 0.815315 0.294874 0.823191
ITEM: TIMESTEP
60
ITEM: NUMBER OF ATOMS
5
ITEM: BOX BOUNDS ff ff ff
-5.0000000000000000e+00 5.0000000000000000e+00
-5.0000000000000000e+00 5.0000000000000000e+00
-5.0000000000000000e+00 5.0000000000000000e+00
ITEM: ATOMS id type xs ys zs
1 1 0.196903 0.286912 0.269009
2 1 0.259374 0.258941 0.966385
3 1 0.477513 0.632671 0.391872
4 1 0.431333 0.902871 0.542124
5 1 0.8153 0.294877 0.823189
ITEM: TIMESTEP
61
ITEM: NUMBER OF ATOMS
5
ITEM: BOX BOUNDS ff ff ff
-5.0000000000000000e+00 5.0000000000000000e+00
-5.0000000000000000e+00 5.0000000000000000e+00
-5.0000000000000000e+00 5.0000000000000000e+00
ITEM: ATOMS id type xs ys zs
1 1 0.196938 0.286955 0.269029
2 1 0.259387 0.258945 0.966377
3 1 0.477356 0.63336 0.392272
4 1 0.431458 0.902131 0.541715
5 1 0.815284 0.29488 0.823187
ITEM: TIMESTEP
62
ITEM: NUMBER OF ATOMS
5
ITEM: BOX BOUNDS ff ff ff
-5.0000000000000000e+00 5.0000000000000000e+00
-5.0000000000000000e+00 5.0000000000000000e+00
-5.0000000000000000e+00 5.0000000000000000e+00
ITEM: ATOMS id type xs ys zs
1 1 0.196974 0.286999 0.269048
2 1 0.259399 0.258948 0.966368
3 1 0.477193 0.634081 0.392689
4 1 0.431589 0.90136 0.54129
5 1 0.815268 0.294884 0.823185
ITEM: TIMESTEP
63
ITEM: NUMBER OF ATOMS
5
ITEM: BOX BOUNDS ff ff ff
-5.0000000000000000e+00 5.0000000000000000e+00
-5.0000000000000000e+00 5.0000000000000000e+00
-5.0000000000000000e+00 5.0000000000000000e+00
ITEM: ATOMS id type xs ys zs
1 1 0.197009 0.287042 0.269067
2 1 0.259412 0.258951 0.966359
3 1 0.477026 0.634834 0.393124
4 1 0.431725 0.900557 0.540846
5 1 0.815252 0.294887 0.823183
ITEM: TIMESTEP
64
ITEM: NUMBER OF ATOMS
5
ITEM: BOX BOUNDS ff ff ff
-5.0000000000000000e+00 5.0000000000000000e+00
-5.0000000000000000e+00 5.0000000000000000e+00
-5.0000000000000000e+00 5.0000000000000000e+00
ITEM: ATOMS id type xs ys zs
1 1 0.197044 0.287086 0.269087
2 1 0.259424 0.258954 0.966351
3 1 0.476853 0.635623 0.393579
4 1 0.431867 0.899718 0.540382
5 1 0.815236 0.29489 0.823182
ITEM: TIMESTEP
65
ITEM: NUMBER OF ATOMS
5
ITEM: BOX BOUNDS ff ff ff
-5.0000000000000000e+00 5.0000000000000000e+00
-5.0000000000000000e+00 5.0000000000000000e+00
-5.0000000000000000e+00 5.0000000000000000e+00
ITEM: ATOMS id type xs ys zs
1 1 0.197079 0.287129 0.269106
2 1 0.259437 0.258958 0.966342
3 1 0.476673 0.636451 0.394055
4 1 0.432015 0.898841 0.539898
5 1 0.81522 0.294894 0.82318
ITEM: TIMESTEP
66
ITEM: NUMBER OF ATOMS
5
ITEM: BOX BOUNDS ff ff ff
-5.0000000000000000e+00 5.0000000000000000e+00
-5.0000000000000000e+00 5.0000000000000000e+00
-5.0000000000000000e+00 5.0000000000000000e+00
ITEM: ATOMS id type xs ys zs
1 1 0.197113 0.287172 0.269125
2 1 0.259449 0.258961 0.966333
3 1 0.476487 0.637321 0.394555
4 1 0.43217 0.89792 0.539389
5 1 0.815204 0.294897 0.823178
ITEM: TIMESTEP
67
ITEM: NUMBER OF ATOMS
5
ITEM: BOX BOUNDS ff ff ff
-5.0000000000000000e+00 5.0000000000000000e+00
-5.0000000000000000e+00 5.0000000000000000e+00
-5.0000000000000000e+00 5.0000000000000000e+00
ITEM: ATOMS id type xs ys zs
1 1 0.197147 0.287215 0.269144
2 1 0.259462 0.258964 0.966324
3 1 0.476293 0.63824 0.395082
4 1 0.432334 0.896952 0.538853
5 1 0.815188 0.2949 0.823176
ITEM: TIMESTEP
68
ITEM: NUMBER OF ATOMS
5
ITEM: BOX BOUNDS ff ff ff
-5.0000000000000000e+00 5.0000000000000000e+00
-5.0000000000000000e+00 5.0000000000000000e+00
-5.0000000000000000e+00 5.0000000000000000e+00
ITEM: ATOMS id type xs ys zs
1 1 0.197181 0.287257 0.269164
2 1 0.259474 0.258968 0.966315
3 1 0.47609 0.639213 0.395638
4 1 0.432506 0.895929 0.538288
5 1 0.815172 0.294904 0.823174
ITEM: TIMESTEP
69
ITEM: NUMBER OF ATOMS
5
ITEM: BOX BOUNDS ff ff ff
-5.0000000000000000e+00 5.0000000000000000e+00
-5.0000000000000000e+00 5.0000000000000000e+00
-5.0000000000000000e+00 5.0000000000000000e+00
ITEM: ATOMS id type xs ys zs
1 1 0.197215 0.2873 0.269183
2 1 0.259487 0.258971 0.966306
3 1 0.475877 0.640247 0.396229
4 1 0.432689 0.894846 0.537689
5 1 0.815155 0.294907 0.823172
ITEM: TIMESTEP
70
ITEM: NUMBER OF ATOMS
5
ITEM: BOX BOUNDS ff ff ff
-5.0000000000000000e+00 5.0000000000000000e+00
-5.0000000000000000e+00 5.0000000000000000e+00
-5.0000000000000000e+00 5.0000000000000000e+00
ITEM: ATOMS id type xs ys zs
1 1 0.197248 0.287342 0.269202
2 1 0.2595 0.258974 0.966297
3 1 0.475653 0.641351 0.396858
4 1 0.432883 0.893694 0.537052
5 1 0.815139 0.294911 0.823171
ITEM: TIMESTEP
71
ITEM: NUMBER OF ATOMS
5
ITEM: BOX BOUNDS ff ff ff
-5.0000000000000000e+00 5.0000000000000000e+00
-5.0000000000000000e+00 5.0000000000000000e+00
-5.0000000000000000e+00 5.0000000000000000e+00
ITEM: ATOMS id type xs ys zs
1 1 0.197281 0.287384 0.269221
2 1 0.259512 0.258978 0.966288
3 1 0.475416 0.642534 0.397531
4 1 0.43309 0.892461 0.53637
5 1 0.815123 0.294914 0.823169
ITEM: TIMESTEP
72
ITEM: NUMBER OF ATOMS
5
ITEM: BOX BOUNDS ff ff ff
-5.0000000000000000e+00 5.0000000000000000e+00
-5.0000000000000000e+00 5.0000000000000000e+00
-5.0000000000000000e+00 5.0000000000000000e+00
ITEM: ATOMS id type xs ys zs
1 1 0.197314 0.287426 0.26924
2 1 0.259525 0.258981 0.966279
3 1 0.475164 0.643811 0.398256
4 1 0.433314 0.891135 0.535637
5 1 0.815106 0.294918 0.823167
ITEM: TIMESTEP
73
ITEM: NUMBER OF ATOMS
5
ITEM: BOX BOUNDS ff ff ff
-5.0000000000000000e+00 5.0000000000000000e+00
-5.0000000000000000e+00 5.0000000000000000e+00
-5.0000000000000000e+00 5.0000000000000000e+00
ITEM: ATOMS id type xs ys zs
1 1 0.197347 0.287468 0.26926
2 1 0.259538 0.258985 0.96627
3 1 0.474893 0.645198 0.399043
4 1 0.433555 0.889699 0.534842
5 1 0.815089 0.294921 0.823165
ITEM: TIMESTEP
74
ITEM: NUMBER OF ATOMS
5
ITEM: BOX BOUNDS ff ff ff
-5.0000000000000000e+00 5.0000000000000000e+00
-5.0000000000000000e+00 5.0000000000000000e+00
-5.0000000000000000e+00 5.0000000000000000e+00
ITEM: ATOMS id type xs ys zs
1 1 0.197379 0.28751 0.269279
2 1 0.259551 0.258988 0.966261
3 1 0.474601 0.646718 0.399902
4 1 0.433819 0.888131 0.533974
5 1 0.815073 0.294925 0.823163
ITEM: TIMESTEP
75
ITEM: NUMBER OF ATOMS
5
ITEM: BOX BOUNDS ff ff ff
-5.0000000000000000e+00 5.0000000000000000e+00
-5.0000000000000000e+00 5.0000000000000000e+00
-5.0000000000000000e+00 5.0000000000000000e+00
ITEM: ATOMS id type xs ys zs
1 1 0.197408 0.287547 0.269296
2 1 0.259563 0.258991 0.966253
3 1 0.474311 0.648244 0.400764
4 1 0.434083 0.886561 0.533105
5 1 0.815057 0.294928 0.823162
ITEM: TIMESTEP
76
ITEM: NUMBER OF ATOMS
5
ITEM: BOX BOUNDS ff ff ff
-5.0000000000000000e+00 5.0000000000000000e+00
-5.0000000000000000e+00 5.0000000000000000e+00
-5.0000000000000000e+00 5.0000000000000000e+00
ITEM: ATOMS id type xs ys zs
1 1 0.19744 0.287588 0.269315