 # Ce224 O448
  
         672  atoms
           2  atom types
 
      0.000000000000      15.464284870000  xlo xhi
      0.000000000000      13.392463548779  ylo yhi
      0.000000000000     167.301598360022  zlo zhi
      7.732142435000       1.933035597225       1.116038622411  xy xz yz
 
Masses
 
            1   140.11600000            # Ce
            2   15.99900000             # O
 
Atoms # charge
 
         1    1   4.000000        5.799106814834       3.348115880604     165.723281773158
         2    1   4.000000        7.732142423584       6.696231767798     165.723281773158
         3    1   4.000000        9.665178032334      10.044347654993     165.723281773158
         4    1   4.000000       11.598213641084      13.392463542188     165.723281773158
         5    1   4.000000        9.665178032334       3.348115880604     165.723281773158
         6    1   4.000000       11.598213641084       6.696231767798     165.723281773158
         7    1   4.000000       13.531249249834      10.044347654993     165.723281773158
         8    1   4.000000       15.464284858584      13.392463542188     165.723281773158
         9    1   4.000000       13.531249249834       3.348115880604     165.723281773158
        10    1   4.000000       15.464284858584       6.696231767798     165.723281773158
        11    1   4.000000       17.397320467334      10.044347654993     165.723281773158
        12    1   4.000000       19.330356076084      13.392463542188     165.723281773158
        13    1   4.000000       17.397320467334       3.348115880604     165.723281773158
        14    1   4.000000       19.330356076084       6.696231767798     165.723281773158
        15    1   4.000000       21.263391684834      10.044347654993     165.723281773158
        16    1   4.000000       23.196427293584      13.392463542188     165.723281773158
        17    1   4.000000        1.933035578221       1.116038611439     162.566646926413
        18    1   4.000000        3.866071186971       4.464154498634     162.566646926413
        19    1   4.000000        5.799106795721       7.812270385829     162.566646926413
        20    1   4.000000        7.732142404471      11.160386273023     162.566646926413
        21    1   4.000000        5.799106795721       1.116038611439     162.566646926413
        22    1   4.000000        7.732142404471       4.464154498634     162.566646926413
        23    1   4.000000        9.665178013221       7.812270385829     162.566646926413
        24    1   4.000000       11.598213621971      11.160386273023     162.566646926413
        25    1   4.000000        9.665178013221       1.116038611439     162.566646926413
        26    1   4.000000       11.598213621971       4.464154498634     162.566646926413
        27    1   4.000000       13.531249230721       7.812270385829     162.566646926413
        28    1   4.000000       15.464284839471      11.160386273023     162.566646926413
        29    1   4.000000       13.531249230721       1.116038611439     162.566646926413
        30    1   4.000000       15.464284839471       4.464154498634     162.566646926413
        31    1   4.000000       17.397320448221       7.812270385829     162.566646926413
        32    1   4.000000       19.330356056971      11.160386273023     162.566646926413
        33    1   4.000000        3.866071187188       2.232077240629     159.410013752684
        34    1   4.000000        5.799106795938       5.580193127824     159.410013752684
        35    1   4.000000        7.732142404688       8.928309015019     159.410013752684
        36    1   4.000000        9.665178013438      12.276424902214     159.410013752684
        37    1   4.000000        7.732142404688       2.232077240629     159.410013752684
        38    1   4.000000        9.665178013438       5.580193127824     159.410013752684
        39    1   4.000000       11.598213622188       8.928309015019     159.410013752684
        40    1   4.000000       13.531249230938      12.276424902214     159.410013752684
        41    1   4.000000       11.598213622188       2.232077240629     159.410013752684
        42    1   4.000000       13.531249230938       5.580193127824     159.410013752684
        43    1   4.000000       15.464284839688       8.928309015019     159.410013752684
        44    1   4.000000       17.397320448438      12.276424902214     159.410013752684
        45    1   4.000000       15.464284839688       2.232077240629     159.410013752684
        46    1   4.000000       17.397320448438       5.580193127824     159.410013752684
        47    1   4.000000       19.330356057188       8.928309015019     159.410013752684
        48    1   4.000000       21.263391665938      12.276424902214     159.410013752684
        49    1   4.000000        5.799106776825       3.348115858659     156.253378905939
        50    1   4.000000        7.732142385575       6.696231745854     156.253378905939
        51    1   4.000000        9.665177994325      10.044347633049     156.253378905939
        52    1   4.000000       11.598213603075      13.392463520244     156.253378905939
        53    1   4.000000        9.665177994325       3.348115858659     156.253378905939
        54    1   4.000000       11.598213603075       6.696231745854     156.253378905939
        55    1   4.000000       13.531249211825      10.044347633049     156.253378905939
        56    1   4.000000       15.464284820575      13.392463520244     156.253378905939
        57    1   4.000000       13.531249211825       3.348115858659     156.253378905939
        58    1   4.000000       15.464284820575       6.696231745854     156.253378905939
        59    1   4.000000       17.397320429325      10.044347633049     156.253378905939
        60    1   4.000000       19.330356038075      13.392463520244     156.253378905939
        61    1   4.000000       17.397320429325       3.348115858659     156.253378905939
        62    1   4.000000       19.330356038075       6.696231745854     156.253378905939
        63    1   4.000000       21.263391646825      10.044347633049     156.253378905939
        64    1   4.000000       23.196427255575      13.392463520244     156.253378905939
        65    1   4.000000        1.933035559543       1.116038600655     153.096745732210
        66    1   4.000000        3.866071168293       4.464154487850     153.096745732210
        67    1   4.000000        5.799106777043       7.812270375045     153.096745732210
        68    1   4.000000        7.732142385793      11.160386262240     153.096745732210
        69    1   4.000000        5.799106777043       1.116038600655     153.096745732210
        70    1   4.000000        7.732142385793       4.464154487850     153.096745732210
        71    1   4.000000        9.665177994543       7.812270375045     153.096745732210
        72    1   4.000000       11.598213603293      11.160386262240     153.096745732210
        73    1   4.000000        9.665177994543       1.116038600655     153.096745732210
        74    1   4.000000       11.598213603293       4.464154487850     153.096745732210
        75    1   4.000000       13.531249212043       7.812270375045     153.096745732210
        76    1   4.000000       15.464284820793      11.160386262240     153.096745732210
        77    1   4.000000       13.531249212043       1.116038600655     153.096745732210
        78    1   4.000000       15.464284820793       4.464154487850     153.096745732210
        79    1   4.000000       17.397320429543       7.812270375045     153.096745732210
        80    1   4.000000       19.330356038293      11.160386262240     153.096745732210
        81    1   4.000000        3.866071168510       2.232077229846     149.940112558480
        82    1   4.000000        5.799106777260       5.580193117040     149.940112558480
        83    1   4.000000        7.732142386010       8.928309004235     149.940112558480
        84    1   4.000000        9.665177994760      12.276424891430     149.940112558480
        85    1   4.000000        7.732142386010       2.232077229846     149.940112558480
        86    1   4.000000        9.665177994760       5.580193117040     149.940112558480
        87    1   4.000000       11.598213603510       8.928309004235     149.940112558480
        88    1   4.000000       13.531249212260      12.276424891430     149.940112558480
        89    1   4.000000       11.598213603510       2.232077229846     149.940112558480
        90    1   4.000000       13.531249212260       5.580193117040     149.940112558480
        91    1   4.000000       15.464284821010       8.928309004235     149.940112558480
        92    1   4.000000       17.397320429760      12.276424891430     149.940112558480
        93    1   4.000000       15.464284821010       2.232077229846     149.940112558480
        94    1   4.000000       17.397320429760       5.580193117040     149.940112558480
        95    1   4.000000       19.330356038510       8.928309004235     149.940112558480
        96    1   4.000000       21.263391647260      12.276424891430     149.940112558480
        97    1   4.000000        5.799106758147       3.348115847876     146.783477711735
        98    1   4.000000        7.732142366897       6.696231735071     146.783477711735
        99    1   4.000000        9.665177975647      10.044347622265     146.783477711735
       100    1   4.000000       11.598213584397      13.392463509460     146.783477711735
       101    1   4.000000        9.665177975647       3.348115847876     146.783477711735
       102    1   4.000000       11.598213584397       6.696231735071     146.783477711735
       103    1   4.000000       13.531249193147      10.044347622265     146.783477711735
       104    1   4.000000       15.464284801897      13.392463509460     146.783477711735
       105    1   4.000000       13.531249193147       3.348115847876     146.783477711735
       106    1   4.000000       15.464284801897       6.696231735071     146.783477711735
       107    1   4.000000       17.397320410647      10.044347622265     146.783477711735
       108    1   4.000000       19.330356019397      13.392463509460     146.783477711735
       109    1   4.000000       17.397320410647       3.348115847876     146.783477711735
       110    1   4.000000       19.330356019397       6.696231735071     146.783477711735
       111    1   4.000000       21.263391628147      10.044347622265     146.783477711735
       112    1   4.000000       23.196427236897      13.392463509460     146.783477711735
       113    1   4.000000        1.933035540865       1.116038589871     143.626844538006
       114    1   4.000000        3.866071149615       4.464154477066     143.626844538006
       115    1   4.000000        5.799106758365       7.812270364261     143.626844538006
       116    1   4.000000        7.732142367115      11.160386251456     143.626844538006
       117    1   4.000000        5.799106758365       1.116038589871     143.626844538006
       118    1   4.000000        7.732142367115       4.464154477066     143.626844538006
       119    1   4.000000        9.665177975865       7.812270364261     143.626844538006
       120    1   4.000000       11.598213584615      11.160386251456     143.626844538006
       121    1   4.000000        9.665177975865       1.116038589871     143.626844538006
       122    1   4.000000       11.598213584615       4.464154477066     143.626844538006
       123    1   4.000000       13.531249193365       7.812270364261     143.626844538006
       124    1   4.000000       15.464284802115      11.160386251456     143.626844538006
       125    1   4.000000       13.531249193365       1.116038589871     143.626844538006
       126    1   4.000000       15.464284802115       4.464154477066     143.626844538006
       127    1   4.000000       17.397320410865       7.812270364261     143.626844538006
       128    1   4.000000       19.330356019615      11.160386251456     143.626844538006
       129    1   4.000000        3.866071130502       2.232077207901     140.470209691261
       130    1   4.000000        5.799106739252       5.580193095096     140.470209691261
       131    1   4.000000        7.732142348002       8.928308982291     140.470209691261
       132    1   4.000000        9.665177956752      12.276424869486     140.470209691261
       133    1   4.000000        7.732142348002       2.232077207901     140.470209691261
       134    1   4.000000        9.665177956752       5.580193095096     140.470209691261
       135    1   4.000000       11.598213565502       8.928308982291     140.470209691261
       136    1   4.000000       13.531249174252      12.276424869486     140.470209691261
       137    1   4.000000       11.598213565502       2.232077207901     140.470209691261
       138    1   4.000000       13.531249174252       5.580193095096     140.470209691261
       139    1   4.000000       15.464284783002       8.928308982291     140.470209691261
       140    1   4.000000       17.397320391752      12.276424869486     140.470209691261
       141    1   4.000000       15.464284783002       2.232077207901     140.470209691261
       142    1   4.000000       17.397320391752       5.580193095096     140.470209691261
       143    1   4.000000       19.330356000502       8.928308982291     140.470209691261
       144    1   4.000000       21.263391609252      12.276424869486     140.470209691261
       145    1   4.000000        5.799106739469       3.348115837092     137.313576517532
       146    1   4.000000        7.732142348219       6.696231724287     137.313576517532
       147    1   4.000000        9.665177956969      10.044347611482     137.313576517532
       148    1   4.000000       11.598213565719      13.392463498676     137.313576517532
       149    1   4.000000        9.665177956969       3.348115837092     137.313576517532
       150    1   4.000000       11.598213565719       6.696231724287     137.313576517532
       151    1   4.000000       13.531249174469      10.044347611482     137.313576517532
       152    1   4.000000       15.464284783219      13.392463498676     137.313576517532
       153    1   4.000000       13.531249174469       3.348115837092     137.313576517532
       154    1   4.000000       15.464284783219       6.696231724287     137.313576517532
       155    1   4.000000       17.397320391969      10.044347611482     137.313576517532
       156    1   4.000000       19.330356000719      13.392463498676     137.313576517532
       157    1   4.000000       17.397320391969       3.348115837092     137.313576517532
       158    1   4.000000       19.330356000719       6.696231724287     137.313576517532
       159    1   4.000000       21.263391609469      10.044347611482     137.313576517532
       160    1   4.000000       23.196427218219      13.392463498676     137.313576517532
       161    1   4.000000        1.933035502856       1.116038567927     134.156941670787
       162    1   4.000000        3.866071111606       4.464154455122     134.156941670787
       163    1   4.000000        5.799106720356       7.812270342317     134.156941670787
       164    1   4.000000        7.732142329106      11.160386229512     134.156941670787
       165    1   4.000000        5.799106720356       1.116038567927     134.156941670787
       166    1   4.000000        7.732142329106       4.464154455122     134.156941670787
       167    1   4.000000        9.665177937856       7.812270342317     134.156941670787
       168    1   4.000000       11.598213546606      11.160386229512     134.156941670787
       169    1   4.000000        9.665177937856       1.116038567927     134.156941670787
       170    1   4.000000       11.598213546606       4.464154455122     134.156941670787
       171    1   4.000000       13.531249155356       7.812270342317     134.156941670787
       172    1   4.000000       15.464284764106      11.160386229512     134.156941670787
       173    1   4.000000       13.531249155356       1.116038567927     134.156941670787
       174    1   4.000000       15.464284764106       4.464154455122     134.156941670787
       175    1   4.000000       17.397320372856       7.812270342317     134.156941670787
       176    1   4.000000       19.330355981606      11.160386229512     134.156941670787
       177    1   4.000000        3.866071111824       2.232077197118     131.000308497058
       178    1   4.000000        5.799106720574       5.580193084313     131.000308497058
       179    1   4.000000        7.732142329324       8.928308971507     131.000308497058
       180    1   4.000000        9.665177938074      12.276424858702     131.000308497058
       181    1   4.000000        7.732142329324       2.232077197118     131.000308497058
       182    1   4.000000        9.665177938074       5.580193084313     131.000308497058
       183    1   4.000000       11.598213546824       8.928308971507     131.000308497058
       184    1   4.000000       13.531249155574      12.276424858702     131.000308497058
       185    1   4.000000       11.598213546824       2.232077197118     131.000308497058
       186    1   4.000000       13.531249155574       5.580193084313     131.000308497058
       187    1   4.000000       15.464284764324       8.928308971507     131.000308497058
       188    1   4.000000       17.397320373074      12.276424858702     131.000308497058
       189    1   4.000000       15.464284764324       2.232077197118     131.000308497058
       190    1   4.000000       17.397320373074       5.580193084313     131.000308497058
       191    1   4.000000       19.330355981824       8.928308971507     131.000308497058
       192    1   4.000000       21.263391590574      12.276424858702     131.000308497058
       193    1   4.000000        5.799106701461       3.348115815148     127.843673650313
       194    1   4.000000        7.732142310211       6.696231702343     127.843673650313
       195    1   4.000000        9.665177918961      10.044347589538     127.843673650313
       196    1   4.000000       11.598213527711      13.392463476732     127.843673650313
       197    1   4.000000        9.665177918961       3.348115815148     127.843673650313
       198    1   4.000000       11.598213527711       6.696231702343     127.843673650313
       199    1   4.000000       13.531249136461      10.044347589538     127.843673650313
       200    1   4.000000       15.464284745211      13.392463476732     127.843673650313
       201    1   4.000000       13.531249136461       3.348115815148     127.843673650313
       202    1   4.000000       15.464284745211       6.696231702343     127.843673650313
       203    1   4.000000       17.397320353961      10.044347589538     127.843673650313
       204    1   4.000000       19.330355962711      13.392463476732     127.843673650313
       205    1   4.000000       17.397320353961       3.348115815148     127.843673650313
       206    1   4.000000       19.330355962711       6.696231702343     127.843673650313
       207    1   4.000000       21.263391571461      10.044347589538     127.843673650313
       208    1   4.000000       23.196427180211      13.392463476732     127.843673650313
       209    1   4.000000        1.933035716143       1.116038691068     124.687040476584
       210    1   4.000000        3.866071324893       4.464154578263     124.687040476584
       211    1   4.000000        5.799106933643       7.812270465458     124.687040476584
       212    1   4.000000        7.732142542393      11.160386352653     124.687040476584
       213    1   4.000000        5.799106933643       1.116038691068     124.687040476584
       214    1   4.000000        7.732142542393       4.464154578263     124.687040476584
       215    1   4.000000        9.665178151143       7.812270465458     124.687040476584
       216    1   4.000000       11.598213759893      11.160386352653     124.687040476584
       217    1   4.000000        9.665178151143       1.116038691068     124.687040476584
       218    1   4.000000       11.598213759893       4.464154578263     124.687040476584
       219    1   4.000000       13.531249368643       7.812270465458     124.687040476584
       220    1   4.000000       15.464284977393      11.160386352653     124.687040476584
       221    1   4.000000       13.531249368643       1.116038691068     124.687040476584
       222    1   4.000000       15.464284977393       4.464154578263     124.687040476584
       223    1   4.000000       17.397320586143       7.812270465458     124.687040476584
       224    1   4.000000       19.330356194893      11.160386352653     124.687040476584
       225    2  -2.000000        3.866071322011       2.232077318470     166.512440066590
       226    2  -2.000000        5.799106930761       5.580193205664     166.512440066590
       227    2  -2.000000        7.732142539511       8.928309092859     166.512440066590
       228    2  -2.000000        9.665178148261      12.276424980054     166.512440066590
       229    2  -2.000000        7.732142539511       2.232077318470     166.512440066590
       230    2  -2.000000        9.665178148261       5.580193205664     166.512440066590
       231    2  -2.000000       11.598213757011       8.928309092859     166.512440066590
       232    2  -2.000000       13.531249365761      12.276424980054     166.512440066590
       233    2  -2.000000       11.598213757011       2.232077318470     166.512440066590
       234    2  -2.000000       13.531249365761       5.580193205664     166.512440066590
       235    2  -2.000000       15.464284974511       8.928309092859     166.512440066590
       236    2  -2.000000       17.397320583261      12.276424980054     166.512440066590
       237    2  -2.000000       15.464284974511       2.232077318470     166.512440066590
       238    2  -2.000000       17.397320583261       5.580193205664     166.512440066590
       239    2  -2.000000       19.330356192011       8.928309092859     166.512440066590
       240    2  -2.000000       21.263391800761      12.276424980054     166.512440066590
       241    2  -2.000000        1.933035713370       1.116038689467     164.934123479725
       242    2  -2.000000        3.866071322120       4.464154576662     164.934123479725
       243    2  -2.000000        5.799106930870       7.812270463857     164.934123479725
       244    2  -2.000000        7.732142539620      11.160386351052     164.934123479725
       245    2  -2.000000        5.799106930870       1.116038689467     164.934123479725
       246    2  -2.000000        7.732142539620       4.464154576662     164.934123479725
       247    2  -2.000000        9.665178148370       7.812270463857     164.934123479725
       248    2  -2.000000       11.598213757120      11.160386351052     164.934123479725
       249    2  -2.000000        9.665178148370       1.116038689467     164.934123479725
       250    2  -2.000000       11.598213757120       4.464154576662     164.934123479725
       251    2  -2.000000       13.531249365870       7.812270463857     164.934123479725
       252    2  -2.000000       15.464284974620      11.160386351052     164.934123479725
       253    2  -2.000000       13.531249365870       1.116038689467     164.934123479725
       254    2  -2.000000       15.464284974620       4.464154576662     164.934123479725
       255    2  -2.000000       17.397320583370       7.812270463857     164.934123479725
       256    2  -2.000000       19.330356192120      11.160386351052     164.934123479725
       257    2  -2.000000        5.799106911649       3.348115936500     163.355805219845
       258    2  -2.000000        7.732142520399       6.696231823695     163.355805219845
       259    2  -2.000000        9.665178129149      10.044347710889     163.355805219845
       260    2  -2.000000       11.598213737899      13.392463598084     163.355805219845
       261    2  -2.000000        9.665178129149       3.348115936500     163.355805219845
       262    2  -2.000000       11.598213737899       6.696231823695     163.355805219845
       263    2  -2.000000       13.531249346649      10.044347710889     163.355805219845
       264    2  -2.000000       15.464284955399      13.392463598084     163.355805219845
       265    2  -2.000000       13.531249346649       3.348115936500     163.355805219845
       266    2  -2.000000       15.464284955399       6.696231823695     163.355805219845
       267    2  -2.000000       17.397320564149      10.044347710889     163.355805219845
       268    2  -2.000000       19.330356172899      13.392463598084     163.355805219845
       269    2  -2.000000       17.397320564149       3.348115936500     163.355805219845
       270    2  -2.000000       19.330356172899       6.696231823695     163.355805219845
       271    2  -2.000000       21.263391781649      10.044347710889     163.355805219845
       272    2  -2.000000       23.196427390399      13.392463598084     163.355805219845
       273    2  -2.000000        3.866071303007       2.232077307498     161.777488632980
       274    2  -2.000000        5.799106911757       5.580193194692     161.777488632980
       275    2  -2.000000        7.732142520507       8.928309081887     161.777488632980
       276    2  -2.000000        9.665178129257      12.276424969082     161.777488632980
       277    2  -2.000000        7.732142520507       2.232077307498     161.777488632980
       278    2  -2.000000        9.665178129257       5.580193194692     161.777488632980
       279    2  -2.000000       11.598213738007       8.928309081887     161.777488632980
       280    2  -2.000000       13.531249346757      12.276424969082     161.777488632980
       281    2  -2.000000       11.598213738007       2.232077307498     161.777488632980
       282    2  -2.000000       13.531249346757       5.580193194692     161.777488632980
       283    2  -2.000000       15.464284955507       8.928309081887     161.777488632980
       284    2  -2.000000       17.397320564257      12.276424969082     161.777488632980
       285    2  -2.000000       15.464284955507       2.232077307498     161.777488632980
       286    2  -2.000000       17.397320564257       5.580193194692     161.777488632980
       287    2  -2.000000       19.330356173007       8.928309081887     161.777488632980
       288    2  -2.000000       21.263391781757      12.276424969082     161.777488632980
       289    2  -2.000000        1.933035694366       1.116038678495     160.199172046116
       290    2  -2.000000        3.866071303116       4.464154565690     160.199172046116
       291    2  -2.000000        5.799106911866       7.812270452885     160.199172046116
       292    2  -2.000000        7.732142520616      11.160386340080     160.199172046116
       293    2  -2.000000        5.799106911866       1.116038678495     160.199172046116
       294    2  -2.000000        7.732142520616       4.464154565690     160.199172046116
       295    2  -2.000000        9.665178129366       7.812270452885     160.199172046116
       296    2  -2.000000       11.598213738116      11.160386340080     160.199172046116
       297    2  -2.000000        9.665178129366       1.116038678495     160.199172046116
       298    2  -2.000000       11.598213738116       4.464154565690     160.199172046116
       299    2  -2.000000       13.531249346866       7.812270452885     160.199172046116
       300    2  -2.000000       15.464284955616      11.160386340080     160.199172046116
       301    2  -2.000000       13.531249346866       1.116038678495     160.199172046116
       302    2  -2.000000       15.464284955616       4.464154565690     160.199172046116
       303    2  -2.000000       17.397320564366       7.812270452885     160.199172046116
       304    2  -2.000000       19.330356173116      11.160386340080     160.199172046116
       305    2  -2.000000        5.799106911975       3.348115936688     158.620855459251
       306    2  -2.000000        7.732142520725       6.696231823883     158.620855459251
       307    2  -2.000000        9.665178129475      10.044347711078     158.620855459251
       308    2  -2.000000       11.598213738225      13.392463598273     158.620855459251
       309    2  -2.000000        9.665178129475       3.348115936688     158.620855459251
       310    2  -2.000000       11.598213738225       6.696231823883     158.620855459251
       311    2  -2.000000       13.531249346975      10.044347711078     158.620855459251
       312    2  -2.000000       15.464284955725      13.392463598273     158.620855459251
       313    2  -2.000000       13.531249346975       3.348115936688     158.620855459251
       314    2  -2.000000       15.464284955725       6.696231823883     158.620855459251
       315    2  -2.000000       17.397320564475      10.044347711078     158.620855459251
       316    2  -2.000000       19.330356173225      13.392463598273     158.620855459251
       317    2  -2.000000       17.397320564475       3.348115936688     158.620855459251
       318    2  -2.000000       19.330356173225       6.696231823883     158.620855459251
       319    2  -2.000000       21.263391781975      10.044347711078     158.620855459251
       320    2  -2.000000       23.196427390725      13.392463598273     158.620855459251
       321    2  -2.000000        3.866071303333       2.232077307686     157.042538872387
       322    2  -2.000000        5.799106912083       5.580193194881     157.042538872387
       323    2  -2.000000        7.732142520833       8.928309082076     157.042538872387
       324    2  -2.000000        9.665178129583      12.276424969270     157.042538872387
       325    2  -2.000000        7.732142520833       2.232077307686     157.042538872387