ITEM: TIMESTEP
500000
ITEM: NUMBER OF ATOMS
672
ITEM: BOX BOUNDS xy xz yz pp pp ss
-6.2308690919516962e-03 2.5143482357671445e+01 7.7383733040919518e+00
-5.3960909211481223e-03 1.4514797610592618e+01 1.9345933144887779e+00
1.2359804627873416e+02 1.6680591684622601e+02 1.1169379708925102e+00
ITEM: ATOMS id type x y z vx vy vz q
210 1 3.68686 4.56408 124.528 -0.00099339 0.00103457 0.00182088 1.35434
656 2 0.0947668 0.0774901 125.32 0.00210405 -0.00270598 0.00308339 -0.693018
653 2 2.01251 3.38076 125.355 0.000635413 -0.00287758 0.000423641 -0.718327
641 2 5.92156 3.3143 125.111 0.00600244 -0.000796433 0.0047412 -0.715665
209 1 2.01719 1.19732 124.585 -0.000915586 -6.98713e-07 -0.000151556 1.36528
658 2 5.73858 5.85104 123.742 0.00232385 0.00186276 0.00607311 -0.638908
657 2 3.54171 2.07408 123.744 0.00158089 0.00673574 -0.00511503 -0.679176
214 1 7.74593 4.41652 124.51 -0.00107059 0.000632973 -0.000228308 1.29789
213 1 5.79194 0.933179 124.462 0.000307753 0.00189788 0.00244806 1.30302
626 2 3.84221 4.50926 126.84 0.00131001 -0.000886711 0.000258491 -0.706305
630 2 7.75377 4.45714 126.942 -0.0118086 0.00594502 -0.00132936 -0.675566
629 2 5.87901 1.01298 126.837 -0.00370232 -0.00412126 0.0016537 -0.70216
625 2 2.08474 1.09414 126.992 0.0031925 0.00064931 -0.00575198 -0.717629
613 2 7.7536 2.26523 128.443 -0.00168319 0.00187894 -0.000491236 -0.703775
610 2 5.74776 5.47865 128.514 -0.00289185 0.00733457 0.011603 -0.663452
609 2 3.83269 2.16931 128.494 -0.00315351 0.00525893 0.00395217 -0.67286
194 1 7.76272 6.66487 127.638 0.00135375 0.00195194 -0.00280279 1.39019
193 1 5.81966 3.25567 127.508 -0.00203765 -0.000367403 -0.00101652 1.33158
649 2 13.6078 3.39485 125.444 0.00263349 -0.00599067 0.00582979 -0.696809
645 2 9.63046 3.37114 125.214 -0.000597675 0.00255288 -0.00341953 -0.70703
646 2 11.7484 6.49249 125.397 0.00720481 -0.000863365 0.00604692 -0.687406
221 1 13.6921 1.19539 124.665 -0.00167732 -0.0011995 0.00181412 1.37811
217 1 9.53921 1.07603 124.505 -0.00216159 -0.00181652 -0.000781026 1.43035
669 2 15.2916 2.12751 123.861 0.00339964 -0.00421235 0.00136378 -0.663451
666 2 13.7752 5.43023 123.729 0.00363887 -0.00109293 0.00340966 -0.656533
665 2 11.7902 2.60097 123.815 -0.000764031 -0.00475456 -0.000555065 -0.671571
662 2 9.7881 5.70875 123.691 0.00327524 -0.000104823 0.00268379 -0.663554
222 1 15.4606 4.56236 124.502 0.00130043 -0.00147156 0.000705659 1.33803
218 1 11.6068 4.3387 124.587 0.00114498 0.00309117 0.00101186 1.41217
642 2 7.84713 6.5685 125.247 -0.00150085 -0.000905494 -0.000328058 -0.730091
661 2 7.9762 1.92893 123.737 0.00144509 0.00177533 -0.00139516 -0.687602
638 2 15.569 4.54705 126.844 -0.000711484 0.0015231 0.000923743 -0.670261
637 2 13.6566 1.14055 126.939 -0.00221898 -0.00453247 -0.000956207 -0.708584
634 2 11.6216 4.41637 126.928 0.000177084 -0.00163825 0.00256482 -0.669797
633 2 9.64496 0.992216 126.842 -0.000335381 0.000703608 0.00277082 -0.69431
621 2 15.3933 2.26866 128.554 0.00568042 -0.00297717 0.00560543 -0.692744
618 2 13.5886 5.42566 128.547 -0.00292262 0.00247868 -0.00127855 -0.684785
617 2 11.5458 2.15267 128.445 -0.00037165 0.00105803 1.47766e-05 -0.694113
614 2 9.55878 5.5974 128.469 -0.00241008 -0.0042983 0.000151875 -0.65992
202 1 15.5774 6.73938 127.818 -0.00133906 8.53708e-05 -0.000601791 1.37198
201 1 13.5578 3.38629 127.716 0.000534702 0.000538747 0.00171685 1.40712
198 1 11.624 6.74432 127.803 7.97585e-05 0.000591457 0.000348018 1.40233
197 1 9.67963 3.23008 127.803 0.000242774 0.00132242 0.000888352 1.35741
654 2 19.2798 6.69558 125.37 -0.000169583 -0.00181074 -0.00133561 -0.695328
670 2 17.6383 5.49985 123.615 -0.0107011 -0.000216886 -0.00419412 -0.665497
622 2 17.3242 5.58717 128.583 0.00270363 -0.00235828 0.00199754 -0.709679
206 1 19.3479 6.64842 127.753 0.000586698 0.000553198 0.00117415 1.38671
205 1 17.4276 3.35959 127.754 9.56639e-05 0.00161778 -0.000612654 1.36242
655 2 5.83713 9.96872 125.438 -0.00275767 -0.00519321 -0.00249426 -0.697471
659 2 7.50007 8.82074 123.778 -0.00435742 0.00303765 -0.00427527 -0.67199
211 1 5.90711 7.79898 124.527 -0.00124521 0.000866015 7.9242e-05 1.38163
207 1 5.91813 9.97825 127.75 -0.00315316 0.000560841 0.000701614 1.41329
611 2 7.78627 8.92929 128.402 0.00302576 0.00192903 0.00544229 -0.701362
627 2 5.82548 7.73407 127.017 0.00500281 -0.00470387 -0.00369586 -0.70062
644 2 11.5985 13.2895 125.249 -0.00377941 0.00122513 -0.00129732 -0.700878
643 2 9.71855 10.0118 125.228 0.00259243 0.00577514 0.006412 -0.718404
215 1 9.7338 7.61603 124.497 0.00031561 -0.000133228 0.000608069 1.33327
667 2 15.5446 9.16264 123.764 0.00750261 0.00211469 -0.000706169 -0.667637
664 2 13.5745 12.2477 123.754 -0.00470935 0.00282626 0.00696616 -0.665814
660 2 9.36678 12.0735 123.717 -0.000475361 -0.00432522 0.00769259 -0.67672
663 2 11.7708 8.70019 123.858 0.00456913 -0.00246642 -0.00136231 -0.666892
216 1 11.6315 11.0889 124.548 -0.0013541 0.000203888 0.00230073 1.2856
219 1 13.5343 7.71111 124.627 0.000717017 0.00162458 -0.000603338 1.31703
220 1 15.4678 11.0483 124.502 0.00294386 -0.00253297 -0.000923373 1.35842
647 2 13.6244 10.0038 125.378 0.00168336 0.000629475 0.00419753 -0.701498
648 2 15.4607 13.2847 125.234 0.00169859 0.000835477 0.0102274 -0.696991
212 1 7.91984 11.126 124.512 0.000440759 -0.0021171 0.00179745 1.3721
650 2 15.5605 6.7766 125.234 0.00567439 -0.0007389 0.0039312 -0.699553
636 2 15.4978 11.0513 126.966 0.00456274 -0.00662527 -0.000237963 -0.667455
632 2 11.5251 11.1738 126.956 -0.000135955 -0.00747322 -0.00244692 -0.707565
619 2 15.4282 8.97193 128.555 -0.000495694 0.0033526 0.00361922 -0.684847
616 2 13.4878 12.1851 128.485 0.00322486 -0.00121706 -0.00248151 -0.670627
615 2 11.5688 8.99759 128.604 -0.00259001 0.00470655 0.00555001 -0.697421
612 2 9.70419 12.2263 128.606 0.00116445 0.000370725 0.00122075 -0.70363
200 1 15.5165 13.3134 127.63 -0.00150362 -0.00147959 0.00170877 1.36373
199 1 13.5308 9.96938 127.754 -0.000677051 -0.00144981 0.000738801 1.39476
196 1 11.59 13.3418 127.774 -0.000581833 0.00185875 -0.00205867 1.39863
195 1 9.69687 10.1095 127.675 0.0009521 -0.00329057 0.000593678 1.38881
635 2 13.523 7.69137 127.099 -0.0021219 0.00923618 -0.00226842 -0.716901
631 2 9.88292 7.72021 126.806 -0.00609571 -0.000184611 -0.00302126 -0.689157
628 2 7.83288 11.1784 126.88 -0.00203652 0.000588368 -0.000270669 -0.698732
671 2 19.3228 8.95123 123.857 -0.000875589 0.00362318 -0.00492064 -0.653707
223 1 17.5314 7.92681 124.581 0.00256934 7.79456e-05 0.00193094 1.32613
672 2 21.1593 12.2209 123.881 0.00661432 0.000684842 0.00522328 -0.675706
652 2 19.3538 13.4416 125.393 0.00262679 -0.00238769 0.00535624 -0.660868
668 2 17.488 12.6224 123.771 -0.00355852 -0.00154097 -0.00268598 -0.627965
224 1 19.5866 11.2238 124.628 0.000877873 -0.00171973 -0.0010233 1.37378
651 2 17.5231 10.2203 125.396 -0.00920689 -0.00474769 -0.00300949 -0.665097
640 2 19.5233 11.1617 126.943 0.000828443 0.00179522 0.00670658 -0.694169
624 2 21.4388 12.3242 128.45 0.00232741 0.00116423 0.000271058 -0.680575
623 2 19.4598 8.92588 128.587 -0.000631629 -0.000792233 0.00217624 -0.707947
620 2 17.4504 12.2485 128.565 -0.00126537 -0.00618026 -0.000205005 -0.702781
208 1 23.2748 13.4506 127.719 -0.00129141 0.000366205 0.000581952 1.3862
204 1 19.4201 13.3634 127.762 -0.000422141 -0.000933759 0.00148881 1.37818
203 1 17.4869 10.081 127.821 0.00100492 -0.000442073 -0.00144836 1.37051
639 2 17.4225 7.89842 126.901 -0.000221721 0.00326762 -0.00342113 -0.70482
177 1 3.96093 2.30815 130.958 0.000606585 -8.71082e-05 0.000548302 1.43268
565 2 7.69231 2.23134 133.295 -0.00300737 -0.00302988 0.00367056 -0.725854
562 2 5.73492 5.62425 133.427 -0.00279067 0.00119697 0.00187944 -0.703505
561 2 3.83393 2.17766 133.395 -0.00108887 0.00130235 -0.000840424 -0.684818
166 1 7.6814 4.37555 134.011 0.000435484 0.000990213 0.00114064 1.37251
165 1 5.86382 1.10426 134.024 -0.000793063 0.000199802 6.99925e-05 1.42191
162 1 3.89993 4.44952 134.151 -1.29024e-05 -0.0020907 0.00192801 1.37593
161 1 1.86114 1.1657 134.095 -0.00124443 -0.00110042 0.00130755 1.38349
594 2 7.68701 6.63323 129.993 -0.0034894 -0.000851666 -0.0044659 -0.686822
593 2 5.6625 3.31319 130.197 -0.00314895 -0.00241645 -0.000737919 -0.673862
582 2 7.52371 4.44308 131.773 -0.00283357 0.000149719 -0.00690518 -0.733487
581 2 5.73977 1.12788 131.721 -0.000119391 0.000436532 0.00523985 -0.721355
578 2 3.82661 4.34772 131.722 0.00148898 -0.0015886 -0.00130031 -0.716793
577 2 1.88838 1.14508 131.627 -0.00663662 0.00152692 0.000485597 -0.705573
181 1 7.74871 2.2231 130.906 0.000745622 -0.0026786 -0.00188684 1.34532
178 1 5.84831 5.60301 130.828 -0.000486904 0.000858817 0.000551392 1.39323
573 2 15.4179 2.22413 133.314 0.000657135 0.00570759 0.00491202 -0.69716
570 2 13.4705 5.61693 133.353 0.00233236 0.00772814 -0.00234553 -0.72623
569 2 11.4359 2.30026 133.282 -0.00192279 0.000118222 0.00385086 -0.714042
566 2 9.62451 5.58148 133.242 -0.00337977 0.00418887 0.00198374 -0.703782
174 1 15.4423 4.55456 134.102 0.000568767 -0.00207929 0.00192653 1.36475
173 1 13.5024 1.09939 134.099 -6.74018e-05 0.000648759 -0.000289293 1.37371
170 1 11.6115 4.49841 134.046 0.000524904 0.0018088 -0.000777929 1.40779
169 1 9.71605 1.09946 134.095 -0.00121633 0.00143693 -0.00250632 1.37749
585 2 9.65477 1.15427 131.642 0.000891695 0.00123983 0.00776517 -0.715296
602 2 15.4527 6.86178 130.18 0.00163597 -0.000640811 -0.00666058 -0.693572
601 2 13.5294 3.2215 130.171 0.0013253 0.00047974 0.00358996 -0.660847
598 2 11.5938 6.60381 130.075 0.00555858 0.00607887 0.00369103 -0.683225
597 2 9.79095 3.43279 130.218 -0.00161987 -0.00280234 0.00571951 -0.725836
590 2 15.3528 4.45852 131.68 0.000479181 0.000504616 -0.000709249 -0.730537
589 2 13.5275 1.19068 131.768 -0.00231608 0.00182725 -0.000740021 -0.708489
586 2 11.5793 4.42042 131.76 -0.00487509 -0.00422989 0.0029876 -0.697936
189 1 15.4808 2.25813 130.967 -0.00173698 -0.00212634 -0.004198 1.41563
186 1 13.534 5.56621 130.959 -0.00147864 0.000731391 0.000576956 1.39001
185 1 11.6018 2.19128 131.011 0.000519956 0.000767636 -0.00139107 1.41065
182 1 9.64814 5.46847 130.94 -0.0028903 -0.00100673 -0.00117535 1.376
574 2 17.3304 5.66218 133.339 0.0025858 -0.00743243 -0.00277539 -0.729172
606 2 19.3846 6.68364 130.059 0.00370926 0.00608099 0.000721752 -0.714639
605 2 17.4501 3.41871 130.195 -0.00313459 -0.00650873 0.00292806 -0.693279
190 1 17.4326 5.50249 131.023 0.00194799 -0.00262185 -0.000267222 1.38282
563 2 7.72229 9.03524 133.388 0.000986795 -0.000167815 -0.00272307 -0.712213
164 1 7.77175 11.1801 134.046 0.00168189 0.00151245 0.00178368 1.43086
163 1 5.7029 7.74704 134.131 0.00161278 -0.000637619 -0.00118646 1.39754
580 2 7.75681 11.1563 131.782 0.00114097 -0.00551551 -0.000478555 -0.71239
179 1 7.77351 8.91028 130.97 1.15186e-06 -0.000413116 -2.8635e-05 1.37101
579 2 5.78938 7.8097 131.696 -0.0053897 -0.0011354 -0.00032297 -0.709821
571 2 15.3918 8.84494 133.4 0.00545212 -0.00461981 0.00312408 -0.711592
568 2 13.689 12.364 133.363 -0.000156388 -0.00245377 -0.00616995 -0.696679
567 2 11.5673 8.89589 133.329 0.00451395 0.00323873 0.00373742 -0.693228
564 2 9.65818 12.2009 133.468 0.00479907 -0.00348931 -0.00316288 -0.694684
172 1 15.5358 11.1714 134.072 -0.000302423 0.00127728 0.00242118 1.43044
171 1 13.5444 7.86346 134.124 -0.0021642 0.00109556 0.00270107 1.3774
168 1 11.6068 11.1544 134.102 -0.000683202 0.000983121 -0.000273116 1.38943
167 1 9.53585 7.81997 134.051 -0.000790627 0.000703042 -0.00244114 1.38711
600 2 15.4774 13.3048 130.076 -0.00356058 -0.00246318 0.000241885 -0.684415
599 2 13.5136 10.0593 130.146 -0.00418823 -0.000411153 0.00246571 -0.678411
596 2 11.685 13.3722 130.136 0.00258392 -0.00322925 0.000859946 -0.670479
595 2 9.64093 9.99274 130.138 -0.0044522 -0.00362368 0.00531936 -0.660696
588 2 15.4989 11.127 131.766 0.00197623 0.00617119 -0.000395954 -0.700728
587 2 13.4161 7.77619 131.645 0.00258287 -0.00593128 0.0044384 -0.693102
584 2 11.5566 11.2008 131.801 0.00291047 0.00235778 -0.00591677 -0.711026
187 1 15.4839 8.89357 130.937 0.00124999 0.00175606 -2.77663e-05 1.39774
184 1 13.6 12.2837 130.927 0.00120787 0.00165319 0.00243545 1.37749
183 1 11.5962 8.96647 130.971 0.000872275 0.00130219 -0.00194138 1.3907
180 1 9.69049 12.3129 130.946 0.00069914 -0.00342055 -0.00179003 1.37095
583 2 9.58918 7.8693 131.739 -0.000216367 -0.000409681 0.00181927 -0.712975
576 2 21.1994 12.2174 133.393 0.00778042 -0.00360338 -0.00152544 -0.707311
575 2 19.3856 8.86482 133.336 -0.00041286 -0.00752258 -0.00148442 -0.689999
572 2 17.4113 12.2059 133.195 0.00397405 2.30957e-05 -0.00197873 -0.721778
176 1 19.361 11.1216 134.081 0.00113724 -0.00066738 0.0011504 1.38403
175 1 17.3266 7.77938 134.145 0.00425914 -0.00257745 -0.00198231 1.39416
608 2 23.228 13.4434 130.113 -0.000471191 0.00172574 -0.00110971 -0.670008
607 2 21.2808 10.0468 130.08 0.00393647 0.00480614 0.00419905 -0.694826
604 2 19.3766 13.3283 130.134 0.00532426 0.00221123 -7.89631e-05 -0.714527
603 2 17.3812 10.0249 130.154 0.00260319 -0.00421054 0.0013206 -0.694332
592 2 19.2946 11.1589 131.72 -0.00199439 -0.0031968 -0.000175345 -0.682197
192 1 21.2698 12.2695 130.902 0.000264794 -0.00226629 -0.00130676 1.3459
191 1 19.3887 8.83483 130.823 -0.0011581 0.000321276 -9.79923e-06 1.39037
188 1 17.4463 12.2699 130.944 0.00103339 0.000469205 -0.000451159 1.41591
591 2 17.3992 7.75482 131.731 0.00278388 0.00123038 0.00553709 -0.682303
498 2 7.70907 6.65962 139.642 0.00350125 -0.00448736 0.00250067 -0.707242
497 2 5.73062 3.39868 139.673 0.000960086 0.00160059 -0.00070083 -0.718264
529 2 1.92903 1.12329 136.555 -0.00474026 -0.000614777 -0.000977217 -0.689664
533 2 5.81255 1.13472 136.479 -0.00504672 0.000646053 -0.00302044 -0.67512
530 2 3.82131 4.40122 136.591 0.00329917 -0.00466515 -0.000142678 -0.693338
546 2 7.64016 6.72016 134.871 0.0026604 -0.00718076 -0.00089971 -0.691912
545 2 5.75853 3.26866 134.971 -0.00140781 -0.00465359 -0.00756165 -0.678124
534 2 7.64179 4.35388 136.498 -0.000161688 -0.0018087 -0.00590632 -0.682892
517 2 7.72403 2.15843 138.114 -0.000576283 -0.000668821 -0.0001014 -0.694364
514 2 5.76014 5.6023 137.98 0.00374693 -0.00793326 0.00515139 -0.688975
513 2 3.85564 2.25212 138.048 0.00420132 -0.00448992 0.000639178 -0.689845
146 1 7.64471 6.62982 137.242 -4.82972e-05 -0.00127068 -0.000592392 1.39192
145 1 5.72133 3.30259 137.353 0.000201749 -0.00155082 -0.00249618 1.42464
505 2 13.4435 3.34012 139.788 -0.00396508 -0.00167071 0.00185714 -0.70608
506 2 15.3987 6.7693 139.741 0.00348145 -0.00246485 0.000562893 -0.674951
501 2 9.49592 3.34288 139.731 0.00669132 0.00418142 0.00569861 -0.68543
502 2 11.5965 6.72821 139.712 0.000591209 0.00182304 0.00286206 -0.687103
554 2 15.3913 6.75574 135.012 -0.00699994 0.00691394 -0.00410954 -0.697607
553 2 13.5516 3.32102 134.898 -0.00412754 -0.00183473 -0.00156218 -0.660335
550 2 11.4731 6.74363 134.998 -0.00272133 6.06398e-05 -0.000274536 -0.654806
549 2 9.79896 3.36857 134.856 0.000917804 0.00541954 -0.00160652 -0.653779
542 2 15.5103 4.40461 136.428 0.00610162 -0.00182369 0.00177305 -0.671181
541 2 13.5628 1.18218 136.508 0.00172751 0.00197671 0.0044797 -0.697997
538 2 11.6456 4.45542 136.493 -0.00306381 0.00197278 0.00808136 -0.671917
537 2 9.69456 1.17464 136.442 -0.000370219 0.000685788 0.00134483 -0.676769
525 2 15.4104 2.3446 138.091 0.0060257 0.00115197 0.0017397 -0.711122
522 2 13.5934 5.60462 138.134 -0.00156347 0.00155873 -0.00113427 -0.718116
521 2 11.5678 2.33285 138.164 0.00337195 -0.00862853 0.00143521 -0.699751
518 2 9.79092 5.42139 138.146 -0.00245063 -0.00291284 -0.000626711 -0.697283
154 1 15.4208 6.68803 137.382 -0.000391111 -0.00125503 -6.78857e-05 1.40115
153 1 13.5051 3.33309 137.348 0.00206828 -0.000183065 0.000292283 1.39547
150 1 11.6515 6.66844 137.346 0.00136971 0.000958768 -0.00123462 1.42073
149 1 9.65174 3.36104 137.344 -0.000672538 -0.000690581 -0.00142728 1.39783
509 2 17.4124 3.30642 139.612 0.00249316 8.03202e-05 -0.00312948 -0.69735
510 2 19.4232 6.62091 139.647 -0.0001201 0.00181209 0.00124452 -0.695931
558 2 19.2345 6.63863 134.984 0.000808403 -0.00612557 0.00289335 -0.692727
557 2 17.4747 3.33708 134.964 -0.000269649 -0.000355943 0.00309541 -0.689445
526 2 17.3775 5.60317 138.059 0.00178388 0.00148811 -0.00202525 -0.723258
158 1 19.2057 6.61543 137.336 0.00115431 0.000836725 -0.000485003 1.42728
157 1 17.385 3.30719 137.262 0.000737734 0.00185781 -0.0024868 1.43491
532 2 7.78927 11.1423 136.39 -0.000146647 -0.00149304 -0.00264671 -0.675771
515 2 7.68204 8.98244 138.018 -0.00364721 -0.00249292 0.00341685 -0.699533
531 2 5.63239 7.73914 136.492 -0.000803462 0.00537763 0.00313594 -0.666149
499 2 9.60131 10.0388 139.704 0.000276171 0.000363222 0.00361319 -0.714616
504 2 15.4952 13.4587 139.775 0.00274504 -0.00107443 -0.00181913 -0.700813
500 2 11.6739 13.3659 139.7 0.00288213 0.00790333 0.00104893 -0.676656
503 2 13.4568 9.93008 139.639 0.0034599 0.0060717 0.00310287 -0.708011
552 2 15.445 13.4447 134.875 -0.000963356 0.000167743 -0.00475842 -0.688617
551 2 13.6324 10.1332 134.797 0.00392047 -0.00082926 -0.000253188 -0.71274
548 2 11.5654 13.4039 134.922 0.0104909 0.00494377 -0.000659775 -0.65367
547 2 9.68783 10.0223 134.879 0.00167497 -0.000565622 0.00608477 -0.675334
540 2 15.6005 11.2706 136.557 -0.00302451 0.00231999 0.000931634 -0.710713
536 2 11.5228 11.2282 136.489 0.00196329 -0.000247674 0.00106632 -0.704079
523 2 15.3077 8.97863 138.125 -0.00358012 -0.0012992 -0.00936978 -0.70584
520 2 13.5047 12.3452 138.127 0.00219233 -0.00550757 -0.002105 -0.696597
519 2 11.4651 8.89384 137.921 0.000880838 -0.00615819 -0.00193968 -0.677809
516 2 9.66072 12.3681 138.084 -0.00167403 0.00362607 0.00111728 -0.690246
152 1 15.5131 13.4389 137.283 -0.000714655 2.79242e-05 0.00127202 1.40364
151 1 13.5678 10.0814 137.265 -0.000942591 0.000635795 0.000941907 1.35102
148 1 11.6578 13.3556 137.261 -0.00151557 -0.00115466 0.00074746 1.40823
147 1 9.64784 10.0225 137.27 -0.000372354 -0.00124906 -0.000805206 1.38703
539 2 13.3797 7.80421 136.591 -0.00240227 0.00185166 -0.00372447 -0.690324
535 2 9.43311 7.62959 136.604 0.00165432 0.00246559 -0.00328182 -0.658564
511 2 21.1015 9.99481 139.636 0.0024194 -0.0107074 0.000894044 -0.686639
508 2 19.2136 13.2863 139.744 0.00681658 0.00275147 0.00885706 -0.684899
507 2 17.3187 9.99208 139.648 0.00275433 0.00230668 -0.0110498 -0.690336
512 2 23.2004 13.3992 139.7 -0.00361372 -0.00212579 0.00412255 -0.712286
560 2 23.2386 13.4333 134.816 0.00135278 -0.0050311 -0.00447463 -0.685485
559 2 21.1772 10.0712 135.039 -0.00128732 -0.000785212 -0.00222424 -0.682615
556 2 19.3247 13.4159 134.974 -0.00931784 -0.00529668 -0.00302278 -0.709079
555 2 17.2688 10.0445 134.855 0.00385801 0.00289462 -0.00189658 -0.705363
544 2 19.3632 11.115 136.536 -0.000452155 0.00159999 -0.000819854 -0.685139
543 2 17.2661 7.7592 136.553 -0.00374595 0.00742341 -0.00247463 -0.692027
528 2 21.3082 12.1724 138.169 0.00691049 0.000121843 -0.00147282 -0.691478
527 2 19.3253 8.89681 138.147 -0.00239838 0.00327924 -0.00113219 -0.654531
524 2 17.3734 12.4264 138.053 0.0013843 -0.00257057 0.000291164 -0.684151
160 1 23.2744 13.4341 137.332 -0.00254158 -0.000467128 0.00062283 1.35777
159 1 21.2676 10.0497 137.259 -0.00105291 0.00155046 0.000539352 1.42103
156 1 19.3877 13.3735 137.281 -0.00127763 0.000172563 -0.00148333 1.35399
155 1 17.3322 10.0646 137.309 0.00207669 0.000785646 -0.000512663 1.36076
482 2 3.80645 4.50972 141.312 -0.00136296 -0.00339226 -0.00611689 -0.714665
481 2 2.00891 1.04436 141.266 0.00391103 -0.00483213 0.00543018 -0.711614
485 2 5.74762 1.2574 141.291 -0.00808115 0.00138013 0.00427443 -0.670291
114 1 3.76704 4.52094 143.631 0.00315187 0.00129053 -0.00131241 1.43351
113 1 1.95316 1.14897 143.631 0.00157807 0.00156169 0.000182859 1.37783
486 2 7.57011 4.47346 141.307 0.00304012 -0.00379311 0.00313856 -0.710637
469 2 7.64295 2.20031 142.7 0.00114954 0.000948533 0.00171034 -0.698049
466 2 5.75486 5.66077 142.865 -0.00616984 -0.0041251 -0.000653183 -0.706893
465 2 3.80349 2.20602 142.822 0.00461814 0.000226304 8.56164e-05 -0.706782
450 2 7.70292 6.72504 144.54 -0.000721937 -0.00729141 -0.00334716 -0.725862
449 2 5.83393 3.42797 144.481 -0.000275509 -0.00223147 0.0010249 -0.67721
133 1 7.70568 2.27004 140.51 4.26402e-05 -0.000982375 0.00185906 1.44469
130 1 5.78065 5.58945 140.454 0.000414977 -0.00258025 3.09992e-05 1.42671
129 1 3.83252 2.303 140.503 -0.00126398 -0.000630838 1.52909e-05 1.40223
118 1 7.6798 4.57296 143.622 0.000741289 0.00142678 0.001701 1.36146
117 1 5.7818 1.13343 143.672 0.00117176 -0.000463603 -0.00138001 1.42145
489 2 9.65277 1.13535 141.309 0.00130741 0.000897877 0.00413277 -0.697823
493 2 13.4581 1.1064 141.377 -0.00342363 -0.00345911 0.00403887 -0.689282
125 1 13.5256 1.16186 143.773 0.00121179 -0.0005287 -0.000847074 1.39906
494 2 15.5505 4.51308 141.143 0.0116341 0.000530543 -0.00724681 -0.697756
490 2 11.529 4.48389 141.305 0.00087073 0.00248955 0.0021593 -0.698395
477 2 15.4645 2.26327 142.891 0.00346767 0.00467136 -0.0013455 -0.698346
474 2 13.5172 5.52042 142.969 0.00376368 0.00112216 -0.00516335 -0.71019
473 2 11.6392 2.35923 142.893 -0.00124843 -0.00225018 -0.00581965 -0.685442
470 2 9.64213 5.75178 142.849 0.00123344 0.00280707 -0.00558546 -0.693131
458 2 15.4366 6.78551 144.366 0.00166622 -0.0062603 -0.0020676 -0.7033
457 2 13.5453 3.31574 144.525 -0.00423455 -0.00204206 -0.00109362 -0.688645
454 2 11.6653 6.62908 144.549 0.00268084 -0.00141173 -0.00624786 -0.65282
453 2 9.63995 3.32231 144.33 -0.00669558 -0.000651209 0.0045577 -0.701843
141 1 15.477 2.19888 140.462 -0.000359997 -0.0011371 -0.00129905 1.34693
138 1 13.4535 5.53106 140.539 -0.00154377 0.00150299 0.00020963 1.38658
137 1 11.6152 2.20254 140.526 -0.00313404 0.0025605 -0.00133942 1.38031
134 1 9.6113 5.62082 140.464 0.0016729 -0.000503172 0.000933694 1.37003
126 1 15.3743 4.48602 143.643 0.000200027 -0.000122925 -0.00223633 1.38598
122 1 11.5229 4.45318 143.64 -0.000177415 0.000683281 -4.02647e-05 1.40621
121 1 9.5537 1.12986 143.601 0.000291794 0.000955456 -0.00231472 1.37671
478 2 17.3876 5.69773 142.835 0.00871264 0.000559092 -0.00254868 -0.686931
462 2 19.2681 6.61687 144.31 -0.00366956 0.00236813 0.0042002 -0.689603
461 2 17.4067 3.46863 144.418 0.00441408 0.00189476 -0.000475341 -0.682799
142 1 17.3825 5.58075 140.482 -0.00158454 0.00121154 0.000160062 1.40299
484 2 7.71169 11.2002 141.25 0.00345026 0.00291559 0.00425468 -0.713115
483 2 5.75784 7.73316 141.207 -0.001901 -0.00129476 0.0037069 -0.691932
467 2 7.68638 8.87453 142.969 0.00429881 -0.0018626 0.00759316 -0.694654
131 1 7.71529 8.99567 140.394 -0.00115898 0.000983442 0.000420004 1.35235
116 1 7.77015 11.2382 143.597 -2.68126e-05 0.00124264 -0.000520116 1.375
115 1 5.7363 7.76316 143.604 0.000433948 -0.000449793 -0.00205027 1.41307
492 2 15.4136 11.0472 141.276 0.00158977 0.00180119 -0.00181739 -0.732193
488 2 11.6559 11.2041 141.344 0.00275319 0.000835852 0.001933 -0.731066
487 2 9.62802 7.92548 141.343 0.00236589 0.000578881 0.00184355 -0.652979
475 2 15.5593 8.90792 142.908 0.00373729 0.000875953 -0.00359185 -0.717507
472 2 13.5432 12.4559 142.87 0.00152793 0.00186725 0.0046185 -0.678748
471 2 11.5939 8.87843 142.837 0.000342773 -0.00734032 -0.00561054 -0.695583
468 2 9.62729 12.2205 142.849 -0.00368828 0.00545425 0.00663958 -0.687233
456 2 15.4105 13.4236 144.39 0.0052104 -0.0029592 -0.000608367 -0.669386
455 2 13.5491 10.0409 144.335 0.00203882 -0.00384653 0.00475771 -0.731819
452 2 11.616 13.3505 144.446 0.000971064 0.00368615 0.00385249 -0.661522
451 2 9.70186 10.0035 144.601 3.36248e-05 0.00197924 0.0049139 -0.718717
139 1 15.3752 8.96066 140.461 -0.000502659 -0.000831648 -0.00125217 1.41532
136 1 13.4584 12.3066 140.555 -0.000367182 0.000256183 0.000502408 1.37473
135 1 11.5779 9.0157 140.499 -0.00371218 0.00229006 4.4855e-06 1.37618
132 1 9.63703 12.3225 140.469 -0.00101825 0.00236402 -0.00112667 1.38826
124 1 15.5077 11.1347 143.64 -0.000880651 1.2498e-05 -0.00178068 1.39324
123 1 13.5818 7.82379 143.651 0.00208185 0.000364024 -0.000164432 1.41648
120 1 11.6412 11.0188 143.642 -0.000474554 0.00409173 0.000436494 1.38469
119 1 9.5389 7.88651 143.763 0.000119054 0.000369683 -0.00124467 1.41365
491 2 13.4796 7.7706 141.372 0.00272731 0.00128828 0.00490398 -0.684727
480 2 21.3565 12.4003 142.913 0.00171367 0.00450829 -0.0030035 -0.704365
128 1 19.4208 11.1606 143.714 0.000604262 0.000126911 -0.0021622 1.38716
464 2 23.321 13.4609 144.537 -0.00182161 -0.00133826 -0.00208666 -0.703097
460 2 19.3143 13.3879 144.381 0.000188394 0.00393235 0.00348002 -0.691902
479 2 19.3416 8.81768 142.887 -0.00490608 0.000996546 0.00138086 -0.705988
459 2 17.4996 10.1057 144.428 0.00607965 0.000512014 0.00145969 -0.706449
144 1 21.2038 12.2924 140.534 0.00187777 -9.86853e-05 0.000424458 1.37704
143 1 19.3371 8.93884 140.48 -0.00169997 -0.000178176 -0.000139867 1.40144
463 2 21.2167 10.0994 144.417 0.00352313 0.0016657 -0.00465913 -0.696283
495 2 17.352 7.75746 141.208 -0.00542008 0.0030308 -0.00150292 -0.682965
127 1 17.3814 7.83697 143.586 -0.00146535 0.001161 -0.000861327 1.42794
476 2 17.3044 12.2863 142.881 -0.00261206 -0.000224398 0.00400144 -0.684085
496 2 19.3538 11.1112 141.306 -0.000403868 -0.00661041 -0.00317003 -0.685039
140 1 17.2574 12.3072 140.484 0.000344642 -0.00173043 -0.00208096 1.38361
433 2 2.00734 1.12402 146.092 -0.00411521 -0.00138912 0.00147059 -0.690435
434 2 3.74878 4.50285 145.895 -0.0019639 0.00533462 -0.00756979 -0.686919
437 2 5.81802 1.14596 145.994 -0.00693405 -0.00366716 0.00371822 -0.673137
438 2 7.78347 4.43289 146.146 -0.00402387 -0.00337459 -0.000807105 -0.681841
81 1 3.86919 2.20812 149.989 0.000113977 -2.59801e-05 0.00291986 1.391
82 1 5.75214 5.52992 150.024 -0.000300898 -0.000769859 0.00079234 1.42574
85 1 7.6873 2.21273 149.989 -0.000822349 -0.000576675 0.000111402 1.40165
97 1 5.81308 3.35254 146.881 0.000349669 -0.00040285 -0.00356389 1.36313
98 1 7.72462 6.71881 146.852 0.00112119 8.42946e-06 -0.00209215 1.37143
401 2 5.80945 3.25438 149.359 -0.00281995 0.00406613 -0.00518642 -0.724962
402 2 7.76729 6.59262 149.184 0.00019816 0.0011794 0.000845955 -0.703889
417 2 3.87002 2.22765 147.611 -5.94541e-05 0.000979696 0.00491191 -0.676009
418 2 5.71173 5.49552 147.808 0.0065703 0.00205135 0.00504554 -0.709595
421 2 7.67342 2.23162 147.728 0.00154605 0.00271855 0.00220169 -0.711039
445 2 13.4684 1.10782 146.086 -0.00376042 -0.00474252 0.000564895 -0.721473
441 2 9.62351 1.10231 146.123 -0.00413047 -0.00115401 -0.000952449 -0.699442
446 2 15.48 4.48821 145.996 0.000439691 -0.00466543 -0.00373116 -0.679571
442 2 11.6412 4.5795 146.098 -0.00191354 -0.00521194 0.000588154 -0.700496
422 2 9.68653 5.65199 147.52 7.9646e-05 0.00386551 0.00258946 -0.688455
405 2 9.61386 3.33937 149.248 -0.00292492 -0.00262534 -0.000171883 -0.713041
101 1 9.70058 3.36592 146.874 -0.000250886 -9.52435e-05 0.000184331 1.36747
86 1 9.63119 5.62202 149.997 0.00101424 0.00038809 0.000755591 1.39226
89 1 11.5339 2.31799 150.056 0.000809751 0.00121104 -0.00105591 1.35212
90 1 13.5918 5.64264 150.016 -0.000166199 -0.00206171 -0.00247726 1.37356
93 1 15.4502 2.28923 150.003 -0.000575871 0.000390798 -0.00150866 1.38125
102 1 11.6714 6.64219 146.849 -0.000635782 0.000419247 -0.00125007 1.44729
105 1 13.519 3.32091 146.9 -0.0012566 0.000370357 -0.00126143 1.38723
106 1 15.4348 6.72389 146.811 0.000726484 -9.67912e-05 -0.00104733 1.37768
406 2 11.692 6.68095 149.09 0.00360762 0.00019346 0.00622814 -0.714721
409 2 13.4653 3.41844 149.255 -0.000339182 -0.00338767 -8.48005e-05 -0.707771
410 2 15.4381 6.7511 149.148 0.00349847 -0.00169907 -0.00343796 -0.711654
425 2 11.5671 2.21287 147.578 -0.00266263 0.00695804 -0.00583489 -0.709924
426 2 13.5919 5.58826 147.59 -0.00507544 -0.000199321 -0.000342291 -0.700222
429 2 15.4771 2.22178 147.621 -0.00316739 -0.00126709 -0.00518132 -0.716231
430 2 17.4494 5.5 147.767 0.00343857 0.00118404 0.00226914 -0.697692
94 1 17.3921 5.69772 149.961 -0.00201242 0.000555469 -0.00123204 1.40612
413 2 17.4493 3.35791 149.225 -0.0026172 0.00228796 -0.00786112 -0.669682
109 1 17.3694 3.31653 146.853 0.00197941 0.000820068 -0.000965271 1.39381
110 1 19.2833 6.66387 146.794 0.000492405 -0.000111535 -0.000443306 1.39233
414 2 19.3319 6.79967 149.21 -0.000283614 0.00909077 0.00452957 -0.675835
436 2 7.78322 11.1027 145.988 -0.00490671 -0.00330139 -0.00412362 -0.684253
435 2 5.65492 7.81934 146.003 -0.00361134 0.00466507 0.00607963 -0.701167
83 1 7.61716 8.80794 150.046 -0.000459733 0.00131055 -0.000399203 1.39626
419 2 7.59627 8.90194 147.668 0.00558641 -0.00419124 0.000977101 -0.716025
444 2 15.3865 11.2528 146.013 0.00096229 -0.00797599 -0.00107274 -0.709744
440 2 11.6894 11.121 146.075 0.00106268 -0.00324362 -0.00362243 -0.696748
439 2 9.68236 7.89902 146.018 -0.00143224 0.00522409 0.00629584 -0.704984
443 2 13.5454 7.89045 146.045 0.000470514 -0.0108528 0.00119864 -0.703013
420 2 9.66763 12.2042 147.699 -0.000530215 0.00154763 0.00255468 -0.688703
403 2 9.67339 9.97774 149.175 0.00448195 -0.0038992 -0.00430202 -0.652443
84 1 9.66198 12.2636 150.016 0.00111621 -0.00383206 0.000960913 1.38058
87 1 11.6421 8.89081 149.948 0.000462134 0.00112192 -0.00056392 1.37524
88 1 13.446 12.3872 150.028 0.00025819 0.0010271 0.0016787 1.39547
91 1 15.4422 8.94523 150.066 -0.00118862 0.00150572 -0.00154621 1.41087
99 1 9.64115 9.98434 146.81 0.000207173 -0.000261775 -0.000890721 1.42546
100 1 11.6056 13.3121 146.843 -0.000314818 0.0021893 -0.000872439 1.41697
103 1 13.5871 10.1215 146.768 0.000293936 0.00207373 -0.000333123 1.38769
104 1 15.5371 13.4433 146.93 5.37834e-05 -0.000831649 0.000280754 1.3931
404 2 11.5501 13.4619 149.091 0.00115061 0.00308915 -0.000258467 -0.707873
407 2 13.5529 10.0886 149.248 -0.000773741 -0.00084351 0.00271712 -0.67675
408 2 15.4663 13.4146 149.266 0.00140129 0.00272905 0.00936533 -0.714341
423 2 11.5591 8.87935 147.657 0.00795135 0.000921954 0.00101001 -0.67171
424 2 13.4724 12.3115 147.57 -0.00121543 -0.00575459 -0.000541243 -0.69713
427 2 15.5362 8.94742 147.611 0.00959103 0.00283125 -0.00591131 -0.691214
448 2 19.3393 11.0461 146.089 0.00165294 0.00191364 0.000674095 -0.700982