LAMMPS (2 Aug 2023 - Update 3)
WARNING: Using I/O redirection is unreliable with parallel runs. Better to use the -in switch to read input files. (../lammps.cpp:548)
# Initialize simulation
units           real
atom_style      charge

# Read the restart file from the NVT simulation
read_restart    restart.NVT
Reading restart file ...
  restart file = 2 Aug 2023, LAMMPS = 2 Aug 2023
  restoring atom style charge from restart
  triclinic box = (0 0 0) to (15.469883 13.397312 167.36217) with tilt (7.7383733 1.9345933 1.116938)
WARNING: Triclinic box skew is large. LAMMPS will run inefficiently. (../domain.cpp:220)
  1 by 1 by 8 MPI processor grid
  pair style reaxff stores no restart info
  672 atoms
  read_restart CPU = 0.022 seconds

# Change boundary conditions so that efield can be applied
change_box      all boundary p p s
Changing box ...
WARNING: Triclinic box skew is large. LAMMPS will run inefficiently. (../domain.cpp:220)

# Apply the ReaxFF potential
pair_style	reaxff NULL checkqeq yes
pair_coeff	* * ffield.reax Ce O
WARNING: Changed valency_val to valency_boc for X (../reaxff_ffield.cpp:299)

# Neighbor settings
neighbor        2 bin
neigh_modify    every 10 delay 0 check no

# add charge equalibrium
fix             1 all qeq/reaxff 1 0.0 10.0 1.0e-6 reaxff

fix             2 all nve

variable amp    equal 0.10     # amplitude of the electric field
variable freq   equal 100.0   # frequency of the electric field
variable Eapply equal swiggle(0.0,v_amp,v_freq)

fix             3 all efield 0.0 0.0 v_Eapply

timestep        1.0
thermo          10
thermo_style    custom step temp press lx ly lz

dump           1 all custom 1000 dump_heat_efield.lammpstrj id type x y z vx vy vz q

run            10000000 # 10ns

CITE-CITE-CITE-CITE-CITE-CITE-CITE-CITE-CITE-CITE-CITE-CITE-CITE

Your simulation uses code contributions which should be cited:

- pair reaxff command: doi:10.1016/j.parco.2011.08.005

@Article{Aktulga12,
 author = {H. M. Aktulga and J. C. Fogarty and S. A. Pandit and A. Y. Grama},
 title = {Parallel Reactive Molecular Dynamics: {N}umerical Methods and Algorithmic Techniques},
 journal = {Parallel Computing},
 year =    2012,
 volume =  38,
 number =  {4--5},
 pages =   {245--259}
}

- fix qeq/reaxff command: doi:10.1016/j.parco.2011.08.005

@Article{Aktulga12,
 author = {H. M. Aktulga and J. C. Fogarty and S. A. Pandit and A. Y. Grama},
 title = {Parallel Reactive Molecular Dynamics: {N}umerical Methods and Algorithmic Techniques},
 journal = {Parallel Computing},
 year =    2012,
 volume =  38,
 pages =   {245--259}
}

CITE-CITE-CITE-CITE-CITE-CITE-CITE-CITE-CITE-CITE-CITE-CITE-CITE

Unused restart file global fix info:
  fix style: nvt, fix ID: 3
Neighbor list info ...
  update: every = 10 steps, delay = 0 steps, check = no
  max neighbors/atom: 2000, page size: 100000
  master list distance cutoff = 12
  ghost atom cutoff = 12
  binsize = 6, bins = 5 3 8
  2 neighbor lists, perpetual/occasional/extra = 2 0 0
  (1) pair reaxff, perpetual
      attributes: half, newton off, ghost
      pair build: half/bin/newtoff/ghost
      stencil: full/ghost/bin/3d
      bin: standard
  (2) fix qeq/reaxff, perpetual, copy from (1)
      attributes: half, newton off
      pair build: copy
      stencil: none
      bin: none
Per MPI rank memory allocation (min/avg/max) = 40.6 | 54.76 | 65.23 Mbytes
   Step          Temp          Press            Lx             Ly             Lz      
   1000000   317.13921      2602.2332      15.469883      13.397312      43.182789    
   1000010   312.95213      2455.8895      15.469883      13.397312      43.303371    
   1000020   314.42175      1260.6055      15.469883      13.397312      43.348382    
   1000030   314.10525      312.54312      15.469883      13.397312      43.339774    
   1000040   310.16353      6.2025681      15.469883      13.397312      43.29407     
   1000050   312.36344      421.27291      15.469883      13.397312      43.217529    
   1000060   314.27165      1287.4629      15.469883      13.397312      43.151066    
   1000070   308.04809      1006.4733      15.469883      13.397312      43.265092    
   1000080   304.81899     -201.13703      15.469883      13.397312      43.353235    
   1000090   313.45663     -1267.4008      15.469883      13.397312      43.360195    
   1000100   330.13402     -2339.4273      15.469883      13.397312      43.279509    
   1000110   328.26438     -2692.0758      15.469883      13.397312      43.267723    
   1000120   309.73704     -2638.9904      15.469883      13.397312      43.283226    
   1000130   300.91619     -2572.5359      15.469883      13.397312      43.261798    
   1000140   313.45888     -2051.5069      15.469883      13.397312      43.278253    
   1000150   320.59095     -1034.0282      15.469883      13.397312      43.336851    
   1000160   315.93246     -999.36989      15.469883      13.397312      43.388935    
   1000170   313.21424     -1540.1012      15.469883      13.397312      43.378572    
   1000180   319.55432     -2174.6081      15.469883      13.397312      43.384286    
   1000190   323.66141     -2974.386       15.469883      13.397312      43.48728     
   1000200   325.6967      -3422.5681      15.469883      13.397312      43.492671    
   1000210   324.02911     -2660.677       15.469883      13.397312      43.338557    
   1000220   325.22721     -2166.5309      15.469883      13.397312      43.259925    
   1000230   334.89585     -2987.4602      15.469883      13.397312      43.262548    
   1000240   341.28744     -4081.6648      15.469883      13.397312      43.290325    
   1000250   326.85882     -3358.1239      15.469883      13.397312      43.286233    
   1000260   308.08448     -2279.034       15.469883      13.397312      43.259772    
   1000270   312.7605      -2961.6416      15.469883      13.397312      43.348342    
   1000280   333.73288     -4541.0663      15.469883      13.397312      43.41867     
   1000290   341.83317     -4819.8424      15.469883      13.397312      43.398135    
   1000300   336.99778     -4293.3769      15.469883      13.397312      43.359501    
   1000310   333.2667      -2332.0571      15.469883      13.397312      43.329831    
   1000320   334.78786     -1037.0774      15.469883      13.397312      43.390904    
   1000330   336.20885     -2833.4197      15.469883      13.397312      43.46575     
   1000340   333.22423     -4608.4171      15.469883      13.397312      43.457241    
   1000350   339.35362     -5127.6039      15.469883      13.397312      43.485843    
   1000360   348.14226     -4108.2017      15.469883      13.397312      43.461636    
   1000370   345.16757     -1941.2089      15.469883      13.397312      43.449582    
   1000380   341.42857     -2043.0746      15.469883      13.397312      43.376653    
   1000390   338.30241     -3847.851       15.469883      13.397312      43.324807    
   1000400   337.66988     -5069.3819      15.469883      13.397312      43.396323    
   1000410   342.0739      -3861.4905      15.469883      13.397312      43.406129    
   1000420   350.00154     -965.10441      15.469883      13.397312      43.38287     
   1000430   367.72894     -1354.0126      15.469883      13.397312      43.377112    
   1000440   368.8394      -3234.0794      15.469883      13.397312      43.385       
   1000450   350.61995     -3858.1107      15.469883      13.397312      43.369436    
   1000460   336.19831     -3802.3967      15.469883      13.397312      43.392685    
   1000470   342.43299     -3909.9131      15.469883      13.397312      43.43436     
   1000480   361.85028     -4294.9006      15.469883      13.397312      43.478299    
   1000490   358.77597     -3950.0153      15.469883      13.397312      43.426325    
   1000500   345.76924     -3358.9324      15.469883      13.397312      43.390734    
   1000510   344.722       -2826.1984      15.469883      13.397312      43.403253    
   1000520   353.53688     -2255.1423      15.469883      13.397312      43.331095    
   1000530   359.88832     -3555.3757      15.469883      13.397312      43.326587    
   1000540   360.10143     -5315.355       15.469883      13.397312      43.365354    
   1000550   365.74946     -5942.1241      15.469883      13.397312      43.374838    
   1000560   374.36277     -5159.8901      15.469883      13.397312      43.427822    
   1000570   374.28432     -4528.1359      15.469883      13.397312      43.450208    
   1000580   363.5861      -5278.4831      15.469883      13.397312      43.476649    
   1000590   357.85018     -4876.8146      15.469883      13.397312      43.427271    
   1000600   364.82572     -2746.6177      15.469883      13.397312      43.311074    
   1000610   360.16923      227.92994      15.469883      13.397312      43.319392    
   1000620   357.83384     -713.60344      15.469883      13.397312      43.35999     
   1000630   360.02209     -4325.8057      15.469883      13.397312      43.418424    
   1000640   365.62095     -6153.2698      15.469883      13.397312      43.413414    
   1000650   373.57845     -5218.6101      15.469883      13.397312      43.39428     
   1000660   376.46366     -2673.2616      15.469883      13.397312      43.37762     
   1000670   374.7184      -1339.992       15.469883      13.397312      43.380303    
   1000680   377.06166     -3108.5187      15.469883      13.397312      43.467103    
   1000690   378.954       -5277.1957      15.469883      13.397312      43.596427    
   1000700   367.78705     -4985.7316      15.469883      13.397312      43.588236    
   1000710   369.8431      -4005.4137      15.469883      13.397312      43.42812     
   1000720   378.4505      -3005.298       15.469883      13.397312      43.402568    
   1000730   383.61582     -2965.9705      15.469883      13.397312      43.419935    
   1000740   375.37579     -3070.0904      15.469883      13.397312      43.485654    
   1000750   373.58285     -3414.3151      15.469883      13.397312      43.512018    
   1000760   385.24968     -3263.4891      15.469883      13.397312      43.480244    
   1000770   391.00453     -2482.0852      15.469883      13.397312      43.434507    
   1000780   383.26835     -2503.1604      15.469883      13.397312      43.419828    
   1000790   373.01077     -3897.8221      15.469883      13.397312      43.414476    
   1000800   373.9478      -3212.6934      15.469883      13.397312      43.437186    
   1000810   384.81157     -600.81545      15.469883      13.397312      43.405017    
   1000820   390.27823      1125.3407      15.469883      13.397312      43.258636    
   1000830   389.99391      754.05893      15.469883      13.397312      43.315987    
   1000840   383.41023     -1379.7355      15.469883      13.397312      43.39122     
   1000850   377.06351     -2945.9557      15.469883      13.397312      43.413135    
   1000860   378.72804     -1735.7271      15.469883      13.397312      43.445814    
   1000870   397.31002      212.457        15.469883      13.397312      43.423169    
   1000880   406.32081      350.09172      15.469883      13.397312      43.333327    
   1000890   400.96898     -646.15062      15.469883      13.397312      43.212364    
   1000900   390.42512     -279.84513      15.469883      13.397312      43.225892    
   1000910   386.61817      575.74686      15.469883      13.397312      43.205383    
   1000920   381.34766      1375.2779      15.469883      13.397312      43.20296     
   1000930   380.38103      295.94984      15.469883      13.397312      43.26802     
   1000940   381.45352     -716.07588      15.469883      13.397312      43.379508    
   1000950   391.67288     -436.4301       15.469883      13.397312      43.416913    
   1000960   405.7611       610.63015      15.469883      13.397312      43.356176    
   1000970   409.51567      616.06916      15.469883      13.397312      43.293276    
   1000980   409.45902     -941.23006      15.469883      13.397312      43.445529    
   1000990   409.6684      -896.94164      15.469883      13.397312      43.480551    
   1001000   405.93904      889.42834      15.469883      13.397312      43.378388    
   1001010   405.42685      1958.8631      15.469883      13.397312      43.33084     
   1001020   397.43991      2381.0413      15.469883      13.397312      43.331457    
   1001030   401.70768      803.47073      15.469883      13.397312      43.383842    
   1001040   398.5718      -520.31774      15.469883      13.397312      43.320438    
   1001050   393.12154     -60.128292      15.469883      13.397312      43.324145    
   1001060   407.0481       839.43338      15.469883      13.397312      43.352282    
   1001070   424.06143      1147.06        15.469883      13.397312      43.415824    
   1001080   425.67921      543.72165      15.469883      13.397312      43.349255    
   1001090   413.31194      23.687173      15.469883      13.397312      43.373999    
   1001100   405.7186       455.06623      15.469883      13.397312      43.397019    
   1001110   414.86904      1932.307       15.469883      13.397312      43.370878    
   1001120   419.87478      1864.8467      15.469883      13.397312      43.452733    
   1001130   416.72836      317.63158      15.469883      13.397312      43.444433    
   1001140   417.86383      350.61288      15.469883      13.397312      43.347688    
   1001150   422.01509      2924.6825      15.469883      13.397312      43.230023    
   1001160   417.7983       4201.5624      15.469883      13.397312      43.311152    
   1001170   407.70874      4847.862       15.469883      13.397312      43.371135    
   1001180   424.42292      3189.9616      15.469883      13.397312      43.452612    
   1001190   429.25099      1575.2629      15.469883      13.397312      43.468389    
   1001200   424.51381      573.08077      15.469883      13.397312      43.384714    
   1001210   421.66841      1579.7339      15.469883      13.397312      43.364388    
   1001220   432.95491      2403.989       15.469883      13.397312      43.309398    
   1001230   442.07573      2350.7322      15.469883      13.397312      43.358607    
   1001240   439.91464      1783.4369      15.469883      13.397312      43.436389    
   1001250   435.21538      1741.2777      15.469883      13.397312      43.434355    
   1001260   432.52039      2859.9165      15.469883      13.397312      43.422634    
   1001270   426.35847      3297.9175      15.469883      13.397312      43.36297     
   1001280   427.09648      2155.5945      15.469883      13.397312      43.310619    
   1001290   432.61779      445.43169      15.469883      13.397312      43.408446    
   1001300   446.33012      350.27741      15.469883      13.397312      43.477665    
   1001310   448.47347      949.32877      15.469883      13.397312      43.415881    
   1001320   441.5817       443.04478      15.469883      13.397312      43.403715    
   1001330   428.58062      1378.09        15.469883      13.397312      43.410436    
   1001340   439.55355      2415.8579      15.469883      13.397312      43.289241    
   1001350   452.55756      3516.7976      15.469883      13.397312      43.311223    
   1001360   447.24857      4207.9923      15.469883      13.397312      43.438768    
   1001370   439.51873      3156.4922      15.469883      13.397312      43.442895    
   1001380   435.21652      2407.013       15.469883      13.397312      43.406941    
   1001390   443.96118      2695.0983      15.469883      13.397312      43.35076     
   1001400   463.1982       3696.3067      15.469883      13.397312      43.313528    
   1001410   454.26335      5701.7718      15.469883      13.397312      43.311011    
   1001420   449.14892      2756.7711      15.469883      13.397312      43.331727    
   1001430   448.01705      1316.1585      15.469883      13.397312      43.342825    
   1001440   476.66947      1795.8183      15.469883      13.397312      43.297659    
   1001450   484.75426      3215.5838      15.469883      13.397312      43.292439    
   1001460   458.30864      3360.1798      15.469883      13.397312      43.345836    
   1001470   432.58714      3772.0131      15.469883      13.397312      43.353821    
   1001480   448.36816      3284.7068      15.469883      13.397312      43.377232    
   1001490   478.45635      1626.1481      15.469883      13.397312      43.435855    
   1001500   481.51918     -67.210364      15.469883      13.397312      43.567343    
   1001510   460.79682     -569.34995      15.469883      13.397312      43.617285    
   1001520   452.28428      950.66517      15.469883      13.397312      43.50944     
   1001530   464.02352      2072.0082      15.469883      13.397312      43.438956    
   1001540   479.21426      1074.4551      15.469883      13.397312      43.501235    
   1001550   477.03094     -303.30324      15.469883      13.397312      43.490916    
   1001560   459.06678     -978.84282      15.469883      13.397312      43.606539    
   1001570   449.71995     -1203.628       15.469883      13.397312      43.537845    
   1001580   463.35783     -896.61391      15.469883      13.397312      43.506118    
   1001590   484.55606     -233.05106      15.469883      13.397312      43.468138    
   1001600   505.92556     -327.6469       15.469883      13.397312      43.389129    
   1001610   491.97443      208.00846      15.469883      13.397312      43.381204    
   1001620   463.12404     -322.82264      15.469883      13.397312      43.47042     
   1001630   453.65298     -1847.5027      15.469883      13.397312      43.557044    
   1001640   485.07049     -3693.0919      15.469883      13.397312      43.536195    
   1001650   505.74643     -2895.5828      15.469883      13.397312      43.567608    
   1001660   485.69383     -120.3867       15.469883      13.397312      43.468274    
   1001670   455.912        524.96802      15.469883      13.397312      43.508877    
   1001680   460.80908     -516.71877      15.469883      13.397312      43.519754    
   1001690   487.96107     -1210.0168      15.469883      13.397312      43.473518    
   1001700   512.14181     -2254.681       15.469883      13.397312      43.449696    
   1001710   506.52771     -1952.4324      15.469883      13.397312      43.516207    
   1001720   473.1136      -337.53832      15.469883      13.397312      43.488368    
   1001730   464.57106     -439.11332      15.469883      13.397312      43.571342    
   1001740   494.04298     -819.17853      15.469883      13.397312      43.579264    
   1001750   519.67979     -667.07184      15.469883      13.397312      43.571542    
   1001760   504.26241     -768.41135      15.469883      13.397312      43.543204    
   1001770   469.63921     -1549.0951      15.469883      13.397312      43.49343     
   1001780   455.37127     -1361.5945      15.469883      13.397312      43.556134    
   1001790   502.80165     -2006.9174      15.469883      13.397312      43.584738    
   1001800   544.53967     -1802.1448      15.469883      13.397312      43.573316    
   1001810   530.79845     -2140.1822      15.469883      13.397312      43.506075    
   1001820   489.15789     -3166.1456      15.469883      13.397312      43.589404    
   1001830   480.0386      -3623.6904      15.469883      13.397312      43.653862    
   1001840   505.14028     -2264.5777      15.469883      13.397312      43.532764    
   1001850   523.60462     -117.39041      15.469883      13.397312      43.511323    
   1001860   521.31348     -1433.9428      15.469883      13.397312      43.512749    
   1001870   499.3974      -2775.5514      15.469883      13.397312      43.626819    
   1001880   495.62502     -2752.441       15.469883      13.397312      43.699082    
   1001890   514.67347     -2640.4294      15.469883      13.397312      43.616709    
   1001900   528.57204     -2973.9417      15.469883      13.397312      43.61896     
   1001910   520.19063     -2913.9672      15.469883      13.397312      43.644976    
   1001920   497.35002     -2062.7668      15.469883      13.397312      43.600009    
   1001930   498.42969     -1582.2808      15.469883      13.397312      43.612895    
   1001940   524.61068     -1697.2276      15.469883      13.397312      43.550035    
   1001950   540.00255     -1063.3242      15.469883      13.397312      43.463655    
   1001960   519.46122     -419.10566      15.469883      13.397312      43.390531    
   1001970   506.74436     -1068.3973      15.469883      13.397312      43.44359     
   1001980   512.57361     -2302.8278      15.469883      13.397312      43.51671     
   1001990   530.15301     -2681.824       15.469883      13.397312      43.478071    
   1002000   557.15283     -2390.6094      15.469883      13.397312      43.624287    
   1002010   562.52621     -1464.7375      15.469883      13.397312      43.598087    
   1002020   527.56158     -816.04315      15.469883      13.397312      43.426345    
   1002030   489.94172     -389.49116      15.469883      13.397312      43.482696    
   1002040   498.71412     -1121.2592      15.469883      13.397312      43.550972    
   1002050   558.6494      -2496.5761      15.469883      13.397312      43.584549    
   1002060   588.88834     -2864.3719      15.469883      13.397312      43.564093    
   1002070   550.5731      -3476.4878      15.469883      13.397312      43.595835    
   1002080   491.92997     -3231.6083      15.469883      13.397312      43.644914    
   1002090   511.50497     -1482.7064      15.469883      13.397312      43.57903     
   1002100   581.56109      656.57845      15.469883      13.397312      43.609429    
   1002110   594.21967      1392.9087      15.469883      13.397312      43.635261    
   1002120   531.2008      -712.56904      15.469883      13.397312      43.643702    
   1002130   490.94044     -3285.4579      15.469883      13.397312      43.567254    
   1002140   537.98002     -3748.2514      15.469883      13.397312      43.485423    
   1002150   598.32007     -1941.5401      15.469883      13.397312      43.53286     
   1002160   591.40729      317.20858      15.469883      13.397312      43.614102    
   1002170   527.27692      1765.478       15.469883      13.397312      43.593398    
   1002180   491.41725      1225.8057      15.469883      13.397312      43.511069    
   1002190   531.7842      -932.03643      15.469883      13.397312      43.58597     
   1002200   591.11087     -1065.8875      15.469883      13.397312      43.607776    
   1002210   595.22937      145.67347      15.469883      13.397312      43.542283    
   1002220   552.13369     -544.56315      15.469883      13.397312      43.554069    
   1002230   527.3283      -2209.4212      15.469883      13.397312      43.644069    
   1002240   542.81467     -1316.0151      15.469883      13.397312      43.61652     
   1002250   584.44427      408.33391      15.469883      13.397312      43.477504    
   1002260   592.43284      357.04304      15.469883      13.397312      43.413368    
   1002270   547.67834     -84.967222      15.469883      13.397312      43.430443    
   1002280   521.8194      -940.40833      15.469883      13.397312      43.535385    
   1002290   534.23304     -3.5941707      15.469883      13.397312      43.507931    
   1002300   580.26043      1816.5632      15.469883      13.397312      43.409997    
   1002310   596.46277      3875.0303      15.469883      13.397312      43.490409    
   1002320   559.8362       3899.7966      15.469883      13.397312      43.593768    
   1002330   516.4355       2695.3859      15.469883      13.397312      43.55122     
   1002340   523.90131      1812.5831      15.469883      13.397312      43.495931    
   1002350   588.25581      434.12997      15.469883      13.397312      43.500347    
   1002360   630.87332      1135.4049      15.469883      13.397312      43.590475    
   1002370   603.68024      2862.8105      15.469883      13.397312      43.582193    
   1002380   540.80253      3432.3031      15.469883      13.397312      43.478237    
   1002390   529.21774      2615.6525      15.469883      13.397312      43.394816    
   1002400   582.196        2684.1704      15.469883      13.397312      43.393292    
   1002410   625.16792      2263.6785      15.469883      13.397312      43.373024    
   1002420   595.00862      1623.494       15.469883      13.397312      43.409417    
   1002430   532.33645      1911.8033      15.469883      13.397312      43.416908    
   1002440   530.84678      1523.9408      15.469883      13.397312      43.426021    
   1002450   587.39819      2398.7744      15.469883      13.397312      43.472924    
   1002460   618.59835      3409.5         15.469883      13.397312      43.50163     
   1002470   577.45045      2929.5708      15.469883      13.397312      43.586626    
   1002480   532.26808      2265.0187      15.469883      13.397312      43.623255    
   1002490   546.4298       4266.3529      15.469883      13.397312      43.474392    
   1002500   613.30597      5345.1108      15.469883      13.397312      43.319959    
   1002510   635.13072      4950.1191      15.469883      13.397312      43.439806    
   1002520   587.14181      5007.9521      15.469883      13.397312      43.56056     
   1002530   545.11668      4441.6666      15.469883      13.397312      43.56606     
   1002540   559.89772      4352.423       15.469883      13.397312      43.605222    
   1002550   608.59164      4920.566       15.469883      13.397312      43.611248    
   1002560   619.59263      6114.4297      15.469883      13.397312      43.487243    
   1002570   581.10152      6400.6736      15.469883      13.397312      43.548269    
   1002580   559.91016      4323.5121      15.469883      13.397312      43.593906    
   1002590   581.30868      3297.69        15.469883      13.397312      43.653132    
   1002600   625.98735      3492.1848      15.469883      13.397312      43.538098    
   1002610   628.47028      4767.2206      15.469883      13.397312      43.33542     
   1002620   592.22231      4078.2811      15.469883      13.397312      43.305012    
   1002630   556.99773      2706.8347      15.469883      13.397312      43.461376    
   1002640   557.61932      2784.1859      15.469883      13.397312      43.550973    
   1002650   615.24636      3706.0163      15.469883      13.397312      43.504783    
   1002660   656.79363      4443.906       15.469883      13.397312      43.415518    
   1002670   633.84572      3449.0018      15.469883      13.397312      43.432596    
   1002680   567.39734      3674.5588      15.469883      13.397312      43.421019    
   1002690   553.58857      3591.512       15.469883      13.397312      43.468346    
   1002700   606.84184      3631.8815      15.469883      13.397312      43.535963    
   1002710   640.88479      4080.7913      15.469883      13.397312      43.534163    
   1002720   608.59469      4954.6728      15.469883      13.397312      43.532656    
   1002730   574.41107      3971.7197      15.469883      13.397312      43.433183    
   1002740   580.00242      2779.2886      15.469883      13.397312      43.47246     
   1002750   615.61614      3224.0338      15.469883      13.397312      43.468179    
   1002760   638.6711       4555.72        15.469883      13.397312      43.435815    
   1002770   611.5358       5578.999       15.469883      13.397312      43.453798    
   1002780   572.2455       3798.9162      15.469883      13.397312      43.517173    
   1002790   568.05543      2644.1871      15.469883      13.397312      43.524377    
   1002800   620.91109      3380.9387      15.469883      13.397312      43.503548    
   1002810   667.46316      5015.5929      15.469883      13.397312      43.47178     
   1002820   632.35341      6391.9125      15.469883      13.397312      43.482443    
   1002830   573.39147      5841.438       15.469883      13.397312      43.404083    
   1002840   553.51136      5683.2913      15.469883      13.397312      43.499342    
   1002850   606.18595      5444.5335      15.469883      13.397312      43.487752    
   1002860   666.67146      5143.694       15.469883      13.397312      43.462562    
   1002870   657.18433      4938.2873      15.469883      13.397312      43.514172    
   1002880   593.13571      4537.9535      15.469883      13.397312      43.497424    
   1002890   571.55245      5176.9671      15.469883      13.397312      43.520888    
   1002900   604.43777      6398.6889      15.469883      13.397312      43.485155    
   1002910   633.36872      5454.8271      15.469883      13.397312      43.490529    
   1002920   634.58546      3369.7105      15.469883      13.397312      43.474408    
   1002930   595.53154      2534.9838      15.469883      13.397312      43.513664    
   1002940   596.50765      1283.263       15.469883      13.397312      43.584465    
   1002950   625.72301      2464.1465      15.469883      13.397312      43.588646    
   1002960   655.26459      2287.1984      15.469883      13.397312      43.496761    
   1002970   633.18083      2079.1631      15.469883      13.397312      43.624916    
   1002980   574.23561      2615.4882      15.469883      13.397312      43.708133    
   1002990   571.54292      1913.0065      15.469883      13.397312      43.684265    
   1003000   629.74184      746.97232      15.469883      13.397312      43.696416    
   1003010   679.42302      421.35705      15.469883      13.397312      43.645328    
   1003020   638.16873      2287.1081      15.469883      13.397312      43.721579    
   1003030   576.6988       1610.0957      15.469883      13.397312      43.695395    
   1003040   558.53899      158.77048      15.469883      13.397312      43.546064    
   1003050   628.94999     -1004.0241      15.469883      13.397312      43.648606    
   1003060   699.50754      507.01726      15.469883      13.397312      43.755639    
   1003070   693.56737      1355.4926      15.469883      13.397312      43.714059    
   1003080   619.70181      1356.2648      15.469883      13.397312      43.691436    
   1003090   564.5278       501.15412      15.469883      13.397312      43.766547    
   1003100   581.61416      590.78281      15.469883      13.397312      43.772976    
   1003110   657.90261      1100.1391      15.469883      13.397312      43.774641    
   1003120   680.68125      2570.6722      15.469883      13.397312      43.675233    
   1003130   636.35056      2139.7436      15.469883      13.397312      43.65627     
   1003140   589.92443     -503.05922      15.469883      13.397312      43.810372    
   1003150   612.23851     -1985.9063      15.469883      13.397312      43.764685    
   1003160   663.42598      490.70179      15.469883      13.397312      43.633432    
   1003170   674.54067      1282.6263      15.469883      13.397312      43.62786     
   1003180   623.93426     -335.05562      15.469883      13.397312      43.592303    
   1003190   569.67871      958.7942       15.469883      13.397312      43.590019    
   1003200   621.58975      1516.3091      15.469883      13.397312      43.509598    
   1003210   690.19174      2505.7401      15.469883      13.397312      43.579636    
   1003220   702.63684      1390.9994      15.469883      13.397312      43.746792    
   1003230   658.19061     -1853.9087      15.469883      13.397312      43.770855    
   1003240   619.17455     -2835.8727      15.469883      13.397312      43.666861    
   1003250   625.48226     -1605.9129      15.469883      13.397312      43.655958    
   1003260   667.41591      683.78451      15.469883      13.397312      43.68507     
   1003270   683.06348      1554.4235      15.469883      13.397312      43.650556    
   1003280   643.79899      1042.486       15.469883      13.397312      43.72513     
   1003290   616.27954      595.04139      15.469883      13.397312      43.681648    
   1003300   639.18862     -13.904984      15.469883      13.397312      43.716488    
   1003310   677.33626     -721.37664      15.469883      13.397312      43.692013    
   1003320   675.79268     -2568.1333      15.469883      13.397312      43.645826    
   1003330   629.79941     -3395.3636      15.469883      13.397312      43.7072      
   1003340   613.52118     -2349.1671      15.469883      13.397312      43.793215    
   1003350   647.11766      134.75151      15.469883      13.397312      43.723361    
   1003360   689.76363      443.12327      15.469883      13.397312      43.701215    
   1003370   689.84203     -1148.9704      15.469883      13.397312      43.714574    
   1003380   638.88012     -1345.8741      15.469883      13.397312      43.648972    
   1003390   615.40147     -886.10369      15.469883      13.397312      43.654614    
   1003400   647.85834      84.381136      15.469883      13.397312      43.679944    
   1003410   700.88157     -842.99766      15.469883      13.397312      43.667499    
   1003420   697.68016     -1548.9326      15.469883      13.397312      43.665481    
   1003430   643.92604     -1031.4477      15.469883      13.397312      43.708005    
   1003440   619.009       -1700.6699      15.469883      13.397312      43.658473    
   1003450   646.84625     -765.14939      15.469883      13.397312      43.677662    
   1003460   698.68736     -64.651164      15.469883      13.397312      43.65826     
   1003470   695.45453      1519.0365      15.469883      13.397312      43.605457    
   1003480   651.93273      1449.0194      15.469883      13.397312      43.571906    
   1003490   616.90748      235.56306      15.469883      13.397312      43.69114     
   1003500   637.37638     -1132.9223      15.469883      13.397312      43.823632    
   1003510   701.60837     -1591.5185      15.469883      13.397312      43.79858     
   1003520   729.11252     -1191.0293      15.469883      13.397312      43.721573    
   1003530   684.49556     -1101.3258      15.469883      13.397312      43.681045    
   1003540   642.77335     -611.16947      15.469883      13.397312      43.642574    
   1003550   657.64824      952.65977      15.469883      13.397312      43.596403    
   1003560   684.73274      2505.3517      15.469883      13.397312      43.676057    
   1003570   703.95434     -583.39706      15.469883      13.397312      43.722481    
   1003580   671.49842     -1941.9147      15.469883      13.397312      43.758313    
   1003590   640.28998      110.12742      15.469883      13.397312      43.708399    
   1003600   674.09567      914.10754      15.469883      13.397312      43.654511    
   1003610   715.4838       510.13         15.469883      13.397312      43.619868    
   1003620   711.7834       210.90606      15.469883      13.397312      43.658858    
   1003630   671.56048      313.65465      15.469883      13.397312      43.682526    
   1003640   648.60792      1257.551       15.469883      13.397312      43.646959    
   1003650   672.58951      2613.2209      15.469883      13.397312      43.709809    
   1003660   741.37701      1597.1499      15.469883      13.397312      43.668524    
   1003670   745.82795      546.57706      15.469883      13.397312      43.690955    
   1003680   709.86911     -1494.2549      15.469883      13.397312      43.701097    
   1003690   666.94971     -1212.5703      15.469883      13.397312      43.646745    
   1003700   666.91826      2309.9579      15.469883      13.397312      43.649315    
   1003710   698.37336      4146.3469      15.469883      13.397312      43.551461    
   1003720   699.7444       5005.625       15.469883      13.397312      43.639058    
   1003730   652.50462      5493.0805      15.469883      13.397312      43.679526    
   1003740   631.55837      4836           15.469883      13.397312      43.674816    
   1003750   692.2546       4815.7685      15.469883      13.397312      43.700306    
   1003760   774.01675      5065.1958      15.469883      13.397312      43.658905    
   1003770   774.36374      2985.2986      15.469883      13.397312      43.664768    
   1003780   701.71259      1680.7183      15.469883      13.397312      43.748211    
   1003790   669.13887      1923.8074      15.469883      13.397312      43.752037    
   1003800   711.47237      3972.2165      15.469883      13.397312      43.73484     
   1003810   765.88784      5234.0151      15.469883      13.397312      43.625295    
   1003820   754.6999       4540.8323      15.469883      13.397312      43.582405    
   1003830   687.55906      4277.5801      15.469883      13.397312      43.581564    
   1003840   645.86608      6019.055       15.469883      13.397312      43.584701    
   1003850   674.5693       7297.453       15.469883      13.397312      43.549426    
   1003860   733.20783      5789.4405      15.469883      13.397312      43.548922    
   1003870   755.39578      5580.7715      15.469883      13.397312      43.608616    
   1003880   733.36649      3487.7457      15.469883      13.397312      43.750934    
   1003890   692.95693      1950.4494      15.469883      13.397312      43.756516    
   1003900   699.24899      3044.2402      15.469883      13.397312      43.680486    
   1003910   731.83183      6984.1747      15.469883      13.397312      43.643729    
   1003920   762.0497       7069.007       15.469883      13.397312      43.742129    
   1003930   751.17118      4457.3581      15.469883      13.397312      43.727977    
   1003940   705.86582      3902.1605      15.469883      13.397312      43.670392    
   1003950   687.94161      7223.6498      15.469883      13.397312      43.628565    
   1003960   734.92         10690.931      15.469883      13.397312      43.572354    
   1003970   785.7538       7934.3676      15.469883      13.397312      43.668852    
   1003980   743.87492      5356.3002      15.469883      13.397312      43.707455    
   1003990   679.06391      5686.8316      15.469883      13.397312      43.666418    
   1004000   698.89901      6263.9025      15.469883      13.397312      43.581595    
   1004010   769.64279      5723.4674      15.469883      13.397312      43.622443    
   1004020   802.6174       4346.6581      15.469883      13.397312      43.677967    
   1004030   776.62144      2831.3187      15.469883      13.397312      43.619626    
   1004040   724.3355       5064.0329      15.469883      13.397312      43.545228    
   1004050   747.15571      7765.2388      15.469883      13.397312      43.422159    
   1004060   791.64037      9602.359       15.469883      13.397312      43.424249    
   1004070   771.96291      7258.7158      15.469883      13.397312      43.554666    
   1004080   705.39161      5333.3028      15.469883      13.397312      43.618875    
   1004090   694.6579       6381.967       15.469883      13.397312      43.637567    
   1004100   740.13697      7883.2445      15.469883      13.397312      43.670389    
   1004110   789.65035      6928.6175      15.469883      13.397312      43.714768    
   1004120   773.76096      6681.3408      15.469883      13.397312      43.628978    
   1004130   726.45462      5616.8456      15.469883      13.397312      43.574714    
   1004140   707.90504      4709.1671      15.469883      13.397312      43.567347    
   1004150   749.54981      5346.7825      15.469883      13.397312      43.613112    
   1004160   812.28496      5160.7646      15.469883      13.397312      43.629552    
   1004170   820.18906      6836.6571      15.469883      13.397312      43.653335    
   1004180   782.82277      7852.5306      15.469883      13.397312      43.550486    
   1004190   714.31301      8440.8473      15.469883      13.397312      43.515121    
   1004200   714.60659      7120.4677      15.469883      13.397312      43.549741    
   1004210   778.68044      6246.6404      15.469883      13.397312      43.576856    
   1004220   828.227        5838.9644      15.469883      13.397312      43.630904    
   1004230   790.87518      5675.2059      15.469883      13.397312      43.582581    
   1004240   736.80629      5340.9036      15.469883      13.397312      43.525193    
   1004250   754.21793      6005.9008      15.469883      13.397312      43.584592    
   1004260   802.28613      6612.5647      15.469883      13.397312      43.576372    
   1004270   809.49939      6471.1006      15.469883      13.397312      43.621799    
   1004280   773.68464      4763.7404      15.469883      13.397312      43.652852    
   1004290   750.87058      3387.3179      15.469883      13.397312      43.672521    
   1004300   781.46715      3994.3598      15.469883      13.397312      43.600816    
   1004310   832.08518      6862.0583      15.469883      13.397312      43.569029    
   1004320   827.50268      8334.6654      15.469883      13.397312      43.650688    
   1004330   766.11326      7139.2079      15.469883      13.397312      43.735508    
   1004340   731.21093      5160.6755      15.469883      13.397312      43.707519    
   1004350   749.00146      5881.7945      15.469883      13.397312      43.691163    
   1004360   785.94247      8417.2299      15.469883      13.397312      43.810551    
   1004370   820.08206      6825.7124      15.469883      13.397312      43.864216    
   1004380   818.55737      3730.6255      15.469883      13.397312      43.75068     
   1004390   786.19336      3820.444       15.469883      13.397312      43.669069    
   1004400   797.97201      4202.1241      15.469883      13.397312      43.741603    
   1004410   826.97929      3658.8609      15.469883      13.397312      43.820347    
   1004420   845.40726      3118.5157      15.469883      13.397312      43.854604    
   1004430   817.17463      4089.33        15.469883      13.397312      43.818693    
   1004440   782.33406      4192.4971      15.469883      13.397312      43.822923    
   1004450   782.07907      4385.4409      15.469883      13.397312      43.949085    
   1004460   819.25158      5287.46        15.469883      13.397312      43.859965    
   1004470   821.94914      7079.0669      15.469883      13.397312      43.634717    
   1004480   803.14736      5499.8395      15.469883      13.397312      43.791706    
   1004490   806.28337      3292.3387      15.469883      13.397312      43.923179    
   1004500   817.66802      2634.5321      15.469883      13.397312      44.052979    
   1004510   824.12657      3570.2735      15.469883      13.397312      43.973671    
   1004520   852.69257      4157.0729      15.469883      13.397312      43.887292    
   1004530   841.10322      3856.3933      15.469883      13.397312      43.853056    
   1004540   812.77641      1080.1316      15.469883      13.397312      43.929977    
   1004550   811.5374       1208.9357      15.469883      13.397312      43.877118    
   1004560   822.24383      5385.9809      15.469883      13.397312      43.685206    
   1004570   845.71848      4263.5676      15.469883      13.397312      43.789051    
   1004580   829.0566       3706.1899      15.469883      13.397312      43.897582    
   1004590   797.40035      5253.0308      15.469883      13.397312      43.884309    
   1004600   812.4675       4697.4133      15.469883      13.397312      43.797914    
   1004610   853.73771      3841.6751      15.469883      13.397312      43.771553    
   1004620   880.44959      2346.4194      15.469883      13.397312      43.882789    
   1004630   856.19005      1429.0134      15.469883      13.397312      43.837313    
   1004640   793.12659      2121.6734      15.469883      13.397312      43.753467    
   1004650   783.47387      5146.1603      15.469883      13.397312      43.743263    
   1004660   851.14777      6857.7717      15.469883      13.397312      43.702486    
   1004670   911.59696      6638.7287      15.469883      13.397312      43.780777    
   1004680   889.97101      5448.445       15.469883      13.397312      43.971155    
   1004690   812.64295      3702.6423      15.469883      13.397312      43.982352    
   1004700   792.40125      1930.4836      15.469883      13.397312      44.01186     
   1004710   868.74834      2077.4992      15.469883      13.397312      44.110081    
   1004720   926.36773      3813.0787      15.469883      13.397312      44.06367     
   1004730   885.22181      3770.1624      15.469883      13.397312      43.845182    
   1004740   838.21998      598.19257      15.469883      13.397312      44.027561    
   1004750   853.53461      246.64674      15.469883      13.397312      44.035992    
   1004760   900.79809      1191.3204      15.469883      13.397312      43.92787     
   1004770   886.9916       3543.2591      15.469883      13.397312      43.980408    
   1004780   827.77473      4206.4596      15.469883      13.397312      43.96455     
   1004790   831.32677      854.55075      15.469883      13.397312      44.084058    
   1004800   886.8204      -211.83968      15.469883      13.397312      43.950795    
   1004810   910.99363      2257.8175      15.469883      13.397312      44.06462     
   1004820   916.62979     -365.62647      15.469883      13.397312      44.203904    
   1004830   899.47814     -2422.3537      15.469883      13.397312      44.19877     
   1004840   873.39257     -985.17342      15.469883      13.397312      44.110725    
   1004850   858.08913      1069.6141      15.469883      13.397312      43.910262    
   1004860   868.41968      4739.0912      15.469883      13.397312      43.950215    
   1004870   902.1692       5837.1014      15.469883      13.397312      44.030321    
   1004880   916.30934      3661.5971      15.469883      13.397312      43.944829    
   1004890   880.42682      1622.6123      15.469883      13.397312      43.953347    
   1004900   843.37581      2393.6728      15.469883      13.397312      43.972504    
   1004910   863.10048      3322.9407      15.469883      13.397312      43.953934    
   1004920   932.38292      667.65701      15.469883      13.397312      44.097479    
   1004930   937.59486      1797.6137      15.469883      13.397312      44.076485    
   1004940   876.91165      5199.8615      15.469883      13.397312      43.974879    
   1004950   879.95585      4134.3602      15.469883      13.397312      43.822619    
   1004960   930.16517      2829.7584      15.469883      13.397312      43.883501    
   1004970   929.72871      3751.7465      15.469883      13.397312      43.964624    
   1004980   886.22806      2316.7139      15.469883      13.397312      44.035156    
   1004990   842.35152      3109.9898      15.469883      13.397312      43.928776    
   1005000   865.57215      4401.3921      15.469883      13.397312      43.854342    
   1005010   891.11118      4053.2286      15.469883      13.397312      44.00799     
   1005020   928.30159      1526.2632      15.469883      13.397312      44.130635    
   1005030   927.63291      3882.292       15.469883      13.397312      44.080289    
   1005040   919.53001      4098.3748      15.469883      13.397312      43.984436    
   1005050   912.25102      2764.0115      15.469883      13.397312      43.911386    
   1005060   931.31737      4031.0306      15.469883      13.397312      43.991787    
   1005070   963.29587      5214.881       15.469883      13.397312      44.025395    
   1005080   928.64144      6110.3697      15.469883      13.397312      43.936732    
   1005090   887.14372      5453.7452      15.469883      13.397312      43.921904    
   1005100   895.0465       6609.9915      15.469883      13.397312      43.902643    
   1005110   923.26519      8822.3785      15.469883      13.397312      44.040645    
   1005120   930.1257       10850.156      15.469883      13.397312      43.965706    
   1005130   937.41704      8573.675       15.469883      13.397312      43.855798    
   1005140   929.67247      5944.2192      15.469883      13.397312      43.888473    
   1005150   914.55062      8463.245       15.469883      13.397312      43.924606    
   1005160   932.45196      10573.779      15.469883      13.397312      43.928387    
   1005170   963.66374      8771.6131      15.469883      13.397312      43.896385    
   1005180   931.42003      7210.4916      15.469883      13.397312      44.056407    
   1005190   912.17136      7167.1627      15.469883      13.397312      44.06785     
   1005200   939.33594      8088.6243      15.469883      13.397312      44.051143    
   1005210   958.34377      8981.7149      15.469883      13.397312      44.024689    
   1005220   943.15353      10446.311      15.469883      13.397312      43.908537    
   1005230   921.34336      9698.87        15.469883      13.397312      43.845608    
   1005240   899.61785      8623.6339      15.469883      13.397312      43.850724    
   1005250   892.07157      9672.7058      15.469883      13.397312      43.896294    
   1005260   935.58797      9836.5186      15.469883      13.397312      43.801671    
   1005270   988.02887      8311.2378      15.469883      13.397312      43.77086     
   1005280   993.2191       5705.7884      15.469883      13.397312      43.841633    
   1005290   947.845        5637.816       15.469883      13.397312      43.825069    
   1005300   918.08175      6827.8956      15.469883      13.397312      43.810209    
   1005310   948.13553      7031.067       15.469883      13.397312      43.896189    
   1005320   980.03357      8195.5243      15.469883      13.397312      44.077693    
   1005330   991.07162      7276.8473      15.469883      13.397312      44.163236    
   1005340   967.77282      5281.8708      15.469883      13.397312      44.212232    
   1005350   934.6253       8783.2611      15.469883      13.397312      44.043257    
   1005360   958.99056      9589.3843      15.469883      13.397312      44.032022    
   1005370   1006.4516      9547.1883      15.469883      13.397312      44.042271    
   1005380   1004.2919      11475.355      15.469883      13.397312      43.891822    
   1005390   946.06259      12817.862      15.469883      13.397312      43.802377    
   1005400   929.68304      11839.694      15.469883      13.397312      43.790436    
   1005410   957.60031      11960.745      15.469883      13.397312      43.776686    
   1005420   1008.1876      10140.962      15.469883      13.397312      43.880882    
   1005430   987.57931      10663.278      15.469883      13.397312      43.984679    
   1005440   967.3988       10008.895      15.469883      13.397312      43.884791    
   1005450   947.7449       10362.46       15.469883      13.397312      43.887004    
   1005460   966.24726      11974.775      15.469883      13.397312      43.952346    
   1005470   1007.8308      13186.028      15.469883      13.397312      43.992173    
   1005480   1009.705       12648.301      15.469883      13.397312      43.958688    
   1005490   966.76315      11612.183      15.469883      13.397312      43.977212    
   1005500   954.50034      10152.74       15.469883      13.397312      43.992344    
   1005510   972.52356      9652.8828      15.469883      13.397312      43.984058    
   1005520   1015.1412      9548.5261      15.469883      13.397312      43.935695    
   1005530   1042.1039      9370.8917      15.469883      13.397312      43.932467    
   1005540   987.27533      9679.5297      15.469883      13.397312      44.061581    
   1005550   942.55171      10563.148      15.469883      13.397312      44.000978    
   1005560   964.98928      12736.543      15.469883      13.397312      43.872546    
   1005570   1013.6417      14885.111      15.469883      13.397312      43.702841    
   1005580   1021.824       15007.024      15.469883      13.397312      43.760637    
   1005590   974.6049       13385.836      15.469883      13.397312      43.947689    
   1005600   944.03501      11725.805      15.469883      13.397312      44.130539    
   1005610   991.61534      10803.998      15.469883      13.397312      44.226706    
   1005620   1059.1096      11257.906      15.469883      13.397312      44.191776    
   1005630   1045.3541      10263.965      15.469883      13.397312      44.199267    
   1005640   995.79707      8500.1221      15.469883      13.397312      44.242293    
   1005650   985.07619      11577.521      15.469883      13.397312      44.247427    
   1005660   1028.1587      13979.915      15.469883      13.397312      44.341943    
   1005670   1051.8548      12996.06       15.469883      13.397312      44.381487    
   1005680   1002.2711      12476.224      15.469883      13.397312      44.379888    
   1005690   1003.9308      9868.1511      15.469883      13.397312      44.232163    
   1005700   1009.8466      11477.192      15.469883      13.397312      44.009415    
   1005710   1020.6221      12848.648      15.469883      13.397312      43.992879    
   1005720   1041.0262      10395.782      15.469883      13.397312      44.108327    
   1005730   1057.3783      8236.0867      15.469883      13.397312      44.027174    
   1005740   1049.8361      8532.0881      15.469883      13.397312      43.886311    
   1005750   1019.1278      8352.3756      15.469883      13.397312      43.952026    
   1005760   993.1405       10459.739      15.469883      13.397312      44.007927    
   1005770   1018.8357      12432.99       15.469883      13.397312      44.032332    
   1005780   1056.9243      13139.117      15.469883      13.397312      44.177924    
   1005790   1053.2549      9590.8145      15.469883      13.397312      44.184356    
   1005800   1023.9284      5238.989       15.469883      13.397312      44.020436    
   1005810   1026.3686      5006.6287      15.469883      13.397312      44.004643    
   1005820   1066.7543      7736.9279      15.469883      13.397312      44.172904    
   1005830   1081.4665      9290.9077      15.469883      13.397312      44.206893    
   1005840   1048.4201      7817.438       15.469883      13.397312      44.18841     
   1005850   992.0056       8393.0957      15.469883      13.397312      44.109153    
   1005860   1023.2886      9400.3153      15.469883      13.397312      44.111459    
   1005870   1062.738       8225.4015      15.469883      13.397312      44.137918    
   1005880   1072.5068      5821.0225      15.469883      13.397312      44.325513    
   1005890   1059.7316      5804.9744      15.469883      13.397312      44.271181    
   1005900   1046.6191      7116.6964      15.469883      13.397312      44.162235    
   1005910   1019.4088      9086.5733      15.469883      13.397312      44.145829    
   1005920   1007.8201      8440.6637      15.469883      13.397312      44.253766    
   1005930   1059.4876      3417.3031      15.469883      13.397312      44.291554    
   1005940   1077.5093      4972.934       15.469883      13.397312      44.188671    
   1005950   1080.036       6737.8433      15.469883      13.397312      44.062517    
   1005960   1059.9325      9131.1772      15.469883      13.397312      43.962828    
   1005970   1082.1618      10458.534      15.469883      13.397312      43.883069    
   1005980   1101.6249      9381.4025      15.469883      13.397312      43.895747    
   1005990   1076.8279      8034.5328      15.469883      13.397312      44.048548    
   1006000   1016.8124      7204.6231      15.469883      13.397312      44.237823    
   1006010   1013.5184      6315.3251      15.469883      13.397312      44.169164    
   1006020   1071.9286      8026.6364      15.469883      13.397312      44.237753    
   1006030   1129.9707      7585.0786      15.469883      13.397312      44.234371    
   1006040   1117.1783      7666.9116      15.469883      13.397312      44.196074    
   1006050   1046.4444      9169.7047      15.469883      13.397312      44.181162    
   1006060   1052.3205      8699.3532      15.469883      13.397312      44.163732    
   1006070   1099.4803      9924.7167      15.469883      13.397312      44.118382    
   1006080   1122.8774      7522.3917      15.469883      13.397312      44.175015    
   1006090   1072.7277      5061.1241      15.469883      13.397312      44.201521    
   1006100   1046.5532      8439.4069      15.469883      13.397312      44.08259     
   1006110   1062.1063      12364.847      15.469883      13.397312      44.012394    
   1006120   1127.6277      10729.666      15.469883      13.397312      44.1493      
   1006130   1137.9662      8715.8075      15.469883      13.397312      44.182269    
   1006140   1078.8327      7710.3038      15.469883      13.397312      44.17955     
   1006150   1025.2873      9018.6276      15.469883      13.397312      44.20533     
   1006160   1045.1539      9442.1553      15.469883      13.397312      44.298712    
   1006170   1122.4914      8608.6247      15.469883      13.397312      44.266881    
   1006180   1148.9875      7701.1505      15.469883      13.397312      44.142273    
   1006190   1134.434       4657.8974      15.469883      13.397312      44.273301    
   1006200   1088.3255      4634.3138      15.469883      13.397312      44.29924     
   1006210   1090.9595      5524.7463      15.469883      13.397312      44.217196    
   1006220   1145.2139      4868.4255      15.469883      13.397312      44.270138    
   1006230   1177.9557      4797.3388      15.469883      13.397312      44.273395    
   1006240   1152.4563      4960.9245      15.469883      13.397312      44.110145    
   1006250   1086.6605      4804.1598      15.469883      13.397312      44.157493    
   1006260   1057.6033      4716.6129      15.469883      13.397312      44.118394    
   1006270   1062.5832      8610.2798      15.469883      13.397312      44.088541    
   1006280   1111.043       6087.9132      15.469883      13.397312      44.33963     
   1006290   1136.9159      3276.3274      15.469883      13.397312      44.435569    
   1006300   1127.9329      4641.4849      15.469883      13.397312      44.428841    
   1006310   1129.251       7149.9058      15.469883      13.397312      44.488908    
   1006320   1143.1101      7589.0525      15.469883      13.397312      44.368621    
   1006330   1109           7458.6223      15.469883      13.397312      44.189029    
   1006340   1076.5599      6931.0511      15.469883      13.397312      44.116303    
   1006350   1100.7299      7148.8358      15.469883      13.397312      44.162777    
   1006360   1126.9684      9700.2609      15.469883      13.397312      44.257661    
   1006370   1139.7075      8069.0684      15.469883      13.397312      44.287106    
   1006380   1129.484       7238.4364      15.469883      13.397312      44.166163    
   1006390   1123.4551      8924.0475      15.469883      13.397312      44.203241    
   1006400   1134.8514      10342.85       15.469883      13.397312      44.253074    
   1006410   1126.8006      9375.5743      15.469883      13.397312      44.162115    
   1006420   1134.5314      6847.7646      15.469883      13.397312      44.122794    
   1006430   1130.0183      8379.9632      15.469883      13.397312      44.320042    
   1006440   1147.7582      7791.5545      15.469883      13.397312      44.403385    
   1006450   1137.6579      4977.5807      15.469883      13.397312      44.346337    
   1006460   1141.609       6070.9206      15.469883      13.397312      44.208795    
   1006470   1161.481       6897.1787      15.469883      13.397312      44.297945    
   1006480   1195.678       3649.9115      15.469883      13.397312      44.356219    
   1006490   1175.8016      3808.6115      15.469883      13.397312      44.275365    
   1006500   1128.5109      6418.837       15.469883      13.397312      44.253073    
   1006510   1110.2852      9460.9141      15.469883      13.397312      44.256717    
   1006520   1126.5847      9217.1809      15.469883      13.397312      44.298551    
   1006530   1128.6486      9046.657       15.469883      13.397312      44.259749    
   1006540   1152.0737      10440.047      15.469883      13.397312      44.189094    
   1006550   1171.8289      9699.002       15.469883      13.397312      44.092474    
   1006560   1138.5994      8983.1085      15.469883      13.397312      44.208021    
   1006570   1142.4095      9004.7653      15.469883      13.397312      44.337742    
   1006580   1183.6977      8850.5396      15.469883      13.397312      44.417257    
   1006590   1190.3854      8886.1303      15.469883      13.397312      44.374202    
   1006600   1156.1209      10638.312      15.469883      13.397312      44.221854    
   1006610   1124.6503      11019.352      15.469883      13.397312      44.108929    
   1006620   1152.2979      10413.5        15.469883      13.397312      44.114032    
   1006630   1190.9181      9603.7937      15.469883      13.397312      44.063118    
   1006640   1180.4881      10692.694      15.469883      13.397312      44.293721    
   1006650   1135.6532      13647.168      15.469883      13.397312      44.40701     
   1006660   1158.2992      13772.193      15.469883      13.397312      44.381438    
   1006670   1187.3496      11124.286      15.469883      13.397312      44.456988    
   1006680   1158.7107      10579.393      15.469883      13.397312      44.551207    
   1006690   1129.299       12417.414      15.469883      13.397312      44.627158    
   1006700   1179.1404      10660.732      15.469883      13.397312      44.656081    
   1006710   1196.502       12076.119      15.469883      13.397312      44.650308    
   1006720   1176.2882      14838.9        15.469883      13.397312      44.39179     
   1006730   1150.1043      13117.001      15.469883      13.397312      44.136773    
   1006740   1194.8421      9813.0487      15.469883      13.397312      44.194675    
   1006750   1206.8407      10124.63       15.469883      13.397312      44.19789     
   1006760   1154.5141      12983.165      15.469883      13.397312      44.167571    
   1006770   1141.3188      13167.685      15.469883      13.397312      44.31553     
   1006780   1163.0944      12865.008      15.469883      13.397312      44.373038    
   1006790   1201.2244      12937.448      15.469883      13.397312      44.323795    
   1006800   1227.7002      14270.63       15.469883      13.397312      44.207714    
   1006810   1218.9144      13061.463      15.469883      13.397312      44.133415    
   1006820   1205.455       9853.333       15.469883      13.397312      44.230994    
   1006830   1198.863       10005.18       15.469883      13.397312      44.168372    
   1006840   1170.2649      11943.162      15.469883      13.397312      44.175068    
   1006850   1162.389       11939.072      15.469883      13.397312      44.284729    
   1006860   1146.8457      11882.172      15.469883      13.397312      44.327124    
   1006870   1168.8959      10489.639      15.469883      13.397312      44.280484    
   1006880   1177.153       12822.948      15.469883      13.397312      44.318454    
   1006890   1183.8066      14062.132      15.469883      13.397312      44.167047    
   1006900   1190.5198      10558.292      15.469883      13.397312      44.099828    
   1006910   1218.2909      8228.2856      15.469883      13.397312      43.987751    
   1006920   1227.7804      9456.9953      15.469883      13.397312      44.068834    
   1006930   1206.4702      12968.947      15.469883      13.397312      44.159004    
   1006940   1194.9025      12471.008      15.469883      13.397312      44.134711    
   1006950   1199.2761      10092.243      15.469883      13.397312      44.15832     
   1006960   1187.0079      9243.4909      15.469883      13.397312      44.201485    
   1006970   1190.2677      10182.397      15.469883      13.397312      44.17365     
   1006980   1207.9405      11560.503      15.469883      13.397312      44.141002    
   1006990   1226.0701      12465.549      15.469883      13.397312      44.234062    
   1007000   1190.6637      15939.688      15.469883      13.397312      44.248759    
   1007010   1179.4925      15310.539      15.469883      13.397312      44.169626    
   1007020   1181.69        17973.29       15.469883      13.397312      44.130586    
   1007030   1194.1646      17594.652      15.469883      13.397312      44.322999    
   1007040   1238.7521      14058.295      15.469883      13.397312      44.374481    
   1007050   1251.6385      13813.661      15.469883      13.397312      44.307193    
   1007060   1227.4435      13719.245      15.469883      13.397312      44.269379    
   1007070   1186.1364      13551.141      15.469883      13.397312      44.27202     
   1007080   1184.9139      14867.071      15.469883      13.397312      44.072552    
   1007090   1198.3384      17291.105      15.469883      13.397312      44.047223    
   1007100   1216.7384      13818.968      15.469883      13.397312      44.155664    
   1007110   1210.4974      12292.509      15.469883      13.397312      44.220175    
   1007120   1230.1407      12211.16       15.469883      13.397312      44.107947    
   1007130   1247.5436      11660.152      15.469883      13.397312      44.17718     
   1007140   1236.1536      12108.78       15.469883      13.397312      44.256451    
   1007150   1217.3499      11493.95       15.469883      13.397312      44.260821    
   1007160   1202.0098      10304.978      15.469883      13.397312      44.151023    
   1007170   1200.5728      10998.462      15.469883      13.397312      44.113731    
   1007180   1261.2581      9787.8977      15.469883      13.397312      44.16705     
   1007190   1263.1433      11759.989      15.469883      13.397312      44.300396    
   1007200   1202.9956      14918.731      15.469883      13.397312      44.345817    
   1007210   1185.4764      15496.422      15.469883      13.397312      44.290018    
   1007220   1221.9187      13979.657      15.469883      13.397312      44.300149    
   1007230   1248.9168      12656.759      15.469883      13.397312      44.323106    
   1007240   1241.7558      10653.023      15.469883      13.397312      44.240662    
   1007250   1194.6359      11466.484      15.469883      13.397312      44.24445     
   1007260   1188.9958      14437.766      15.469883      13.397312      44.159126    
   1007270   1246.8093      12921.93       15.469883      13.397312      44.163029    
   1007280   1283.7223      12148.11       15.469883      13.397312      44.203642    
   1007290   1302.6657      9793.7723      15.469883      13.397312      44.231667    
   1007300   1260.9853      11137.431      15.469883      13.397312      44.192426    
   1007310   1232.0312      12983.899      15.469883      13.397312      44.166941    
   1007320   1220.7552      12222.199      15.469883      13.397312      44.44272     
   1007330   1216.1059      12927.93       15.469883      13.397312      44.432928    
   1007340   1223.3564      12798.985      15.469883      13.397312      44.362448    
   1007350   1254.0471      11680.158      15.469883      13.397312      44.417615    
   1007360   1276.99        12195.101      15.469883      13.397312      44.296893    
   1007370   1234.5447      14319.549      15.469883      13.397312      44.260275    
   1007380   1211.8325      11965.268      15.469883      13.397312      44.329522    
   1007390   1202.4709      9782.0581      15.469883      13.397312      44.388099    
   1007400   1231.1347      6494.3037      15.469883      13.397312      44.280812    
   1007410   1251.6715      8371.5222      15.469883      13.397312      44.312507    
   1007420   1270.8033      11975.92       15.469883      13.397312      44.239379    
   1007430   1260.1288      11415.891      15.469883      13.397312      44.344723    
   1007440   1271.7341      9030.472       15.469883      13.397312      44.35131     
   1007450   1271.4934      10648.308      15.469883      13.397312      44.168489    
   1007460   1229.5288      13150.981      15.469883      13.397312      44.194376    
   1007470   1219.0543      10719.089      15.469883      13.397312      44.335423    
   1007480   1237.1089      10340.739      15.469883      13.397312      44.445517    
   1007490   1277.4267      8377.8245      15.469883      13.397312      44.37041     
   1007500   1291.4065      8880.8043      15.469883      13.397312      44.240537    
   1007510   1270.4228      11211.066      15.469883      13.397312      44.344832    
   1007520   1230.8115      15442.525      15.469883      13.397312      44.241856    
   1007530   1237.813       17667.398      15.469883      13.397312      44.136471    
   1007540   1237.9898      15868.281      15.469883      13.397312      44.309307    
   1007550   1224.7835      14263.376      15.469883      13.397312      44.298613    
   1007560   1245.8782      13008.147      15.469883      13.397312      44.274025    
   1007570   1280.9831      12821.486      15.469883      13.397312      44.297667    
   1007580   1307.9834      12980.063      15.469883      13.397312      44.295894    
   1007590   1275.5871      12654.706      15.469883      13.397312      44.434815    
   1007600   1226.2098      11838.042      15.469883      13.397312      44.615066    
   1007610   1218.7387      13713.226      15.469883      13.397312      44.765553    
   1007620   1243.6518      12185.631      15.469883      13.397312      44.691484    
   1007630   1289.5637      8550.4325      15.469883      13.397312      44.607262    
   1007640   1282.3531      9094.5409      15.469883      13.397312      44.699243    
   1007650   1242.5397      11752.822      15.469883      13.397312      44.623784    
   1007660   1242.2847      14791.99       15.469883      13.397312      44.467126    
   1007670   1287.6664      15639.043      15.469883      13.397312      44.339938    
   1007680   1299.565       14448.95       15.469883      13.397312      44.322604    
   1007690   1268.7997      13065.39       15.469883      13.397312      44.499163    
   1007700   1216.9291      15057.632      15.469883      13.397312      44.645079    
   1007710   1236.9751      16555.201      15.469883      13.397312      44.703014    
   1007720   1274.4811      14131.088      15.469883      13.397312      44.668623    
   1007730   1273.7656      10438.037      15.469883      13.397312      44.570314    
   1007740   1262.3074      9078.9919      15.469883      13.397312      44.317282    
   1007750   1268.4795      11088.919      15.469883      13.397312      44.405128    
   1007760   1259.4701      13167.872      15.469883      13.397312      44.364785    
   1007770   1282.7494      11118.957      15.469883      13.397312      44.269728    
   1007780   1292.6734      9766.7696      15.469883      13.397312      44.26289     
   1007790   1312.1899      6861.036       15.469883      13.397312      44.335721    
   1007800   1318.0367      5524.551       15.469883      13.397312      44.493952    
   1007810   1288.3835      4157.7739      15.469883      13.397312      44.51259     
   1007820   1292.7879      4325.0132      15.469883      13.397312      44.555693    
   1007830   1279.5706      7292.259       15.469883      13.397312      44.527804    
   1007840   1240.9236      9592.9599      15.469883      13.397312      44.530213    
   1007850   1220.7789      12295.734      15.469883      13.397312      44.517759    
   1007860   1254.7344      12484.242      15.469883      13.397312      44.457832    
   1007870   1242.0173      12728.62       15.469883      13.397312      44.324413    
   1007880   1267.7489      9346.356       15.469883      13.397312      44.396929    
   1007890   1309.6421      6693.7081      15.469883      13.397312      44.402005    
   1007900   1318.1526      6163.6536      15.469883      13.397312      44.387299    
   1007910   1297.5811      7241.9136      15.469883      13.397312      44.480517    
   1007920   1284.0625      6909.1099      15.469883      13.397312      44.68664     
   1007930   1315.1537      4466.5252      15.469883      13.397312      44.665685    
   1007940   1316.7526      7392.3938      15.469883      13.397312      44.46291     
   1007950   1311.3681      9083.9722      15.469883      13.397312      44.499126    
   1007960   1293.5095      8764.8736      15.469883      13.397312      44.496277    
   1007970   1301.4351      10422.691      15.469883      13.397312      44.537587    
   1007980   1321.9317      11764.131      15.469883      13.397312      44.482445    
   1007990   1314.7565      12787.594      15.469883      13.397312      44.446208    
   1008000   1292.3721      13867.648      15.469883      13.397312      44.321545    
   1008010   1269.6496      15276.307      15.469883      13.397312      44.207291    
   1008020   1260.5576      18648.954      15.469883      13.397312      44.268716    
   1008030   1295.3572      17111.026      15.469883      13.397312      44.260428    
   1008040   1313.1376      11633.811      15.469883      13.397312      44.344701    
   1008050   1340.4602      9268.5179      15.469883      13.397312      44.398223    
   1008060   1392.7499      9517.3721      15.469883      13.397312      44.480405    
   1008070   1382.6907      14760.631      15.469883      13.397312      44.492135    
   1008080   1322.1321      15320.991      15.469883      13.397312      44.38808     
   1008090   1318.9086      11300.382      15.469883      13.397312      44.365604    
   1008100   1305.4404      11409.574      15.469883      13.397312      44.341099    
   1008110   1296.696       13772.968      15.469883      13.397312      44.354514    
   1008120   1320.9116      13984.492      15.469883      13.397312      44.246852    
   1008130   1360.9646      13207.211      15.469883      13.397312      44.409487    
   1008140   1365.7756      13487.798      15.469883      13.397312      44.429359    
   1008150   1323.4946      13474.791      15.469883      13.397312      44.492228    
   1008160   1296.1461      13882.954      15.469883      13.397312      44.541295    
   1008170   1328.5306      14998.287      15.469883      13.397312      44.548519    
   1008180   1368.0161      17044.268      15.469883      13.397312      44.61934     
   1008190   1353.886       17856.284      15.469883      13.397312      44.514248    
   1008200   1325.9389      17290.879      15.469883      13.397312      44.342135    
   1008210   1338.1014      16709.365      15.469883      13.397312      44.275914    
   1008220   1313.7019      16471.084      15.469883      13.397312      44.337352    
   1008230   1269.1146      14650.304      15.469883      13.397312      44.446811    
   1008240   1315.7927      10653.46       15.469883      13.397312      44.423726    
   1008250   1329.2675      13750.495      15.469883      13.397312      44.44259     
   1008260   1365.7938      10889.091      15.469883      13.397312      44.368373    
   1008270   1379.0908      9344.5768      15.469883      13.397312      44.470376    
   1008280   1358.0166      10677.638      15.469883      13.397312      44.656683    
   1008290   1356.8756      11117.732      15.469883      13.397312      44.664965    
   1008300   1381.0541      12637.008      15.469883      13.397312      44.441172    
   1008310   1387.2908      14381.63       15.469883      13.397312      44.482351    
   1008320   1347.8843      14228.335      15.469883      13.397312      44.625619    
   1008330   1311.8894      12253.949      15.469883      13.397312      44.831837    
   1008340   1321.0676      11929.523      15.469883      13.397312      44.981676    
   1008350   1340.1666      12112.073      15.469883      13.397312      44.951503    
   1008360   1345.6202      11236.826      15.469883      13.397312      44.928956    
   1008370   1359.0187      12854.814      15.469883      13.397312      44.707258    
   1008380   1361.823       14503.746      15.469883      13.397312      44.394003    
   1008390   1373.0479      13488.134      15.469883      13.397312      44.314719    
   1008400   1377.4681      12410.066      15.469883      13.397312      44.330701    
   1008410   1390.4852      13175.938      15.469883      13.397312      44.262041    
   1008420   1383.0312      14846.031      15.469883      13.397312      44.241579    
   1008430   1362.5285      16291.246      15.469883      13.397312      44.422023    
   1008440   1335.5106      16337.285      15.469883      13.397312      44.424636    
   1008450   1329.9909      14798.336      15.469883      13.397312      44.287525    
   1008460   1343.4794      17135.115      15.469883      13.397312      44.307421    
   1008470   1375.4527      18000.198      15.469883      13.397312      44.270264    
   1008480   1386.1787      13119.935      15.469883      13.397312      44.27259     
   1008490   1382.6787      12787.874      15.469883      13.397312      44.264492    
   1008500   1390.3314      14236.758      15.469883      13.397312      44.263603    
   1008510   1435.2193      12938.952      15.469883      13.397312      44.302046    
   1008520   1403.7044      14183.842      15.469883      13.397312      44.246699    
   1008530   1356.2264      15854.903      15.469883      13.397312      44.267328    
   1008540   1392.0241      15174.904      15.469883      13.397312      44.271051    
   1008550   1419.9232      15190.274      15.469883      13.397312      44.255797    
   1008560   1413.903       13883.404      15.469883      13.397312      44.205267    
   1008570   1381.7107      16468.777      15.469883      13.397312      44.1622      
   1008580   1380.604       18590.538      15.469883      13.397312      44.232387    
   1008590   1366.6739      17706.178      15.469883      13.397312      44.502373    
   1008600   1382.2239      16941.88       15.469883      13.397312      44.519669    
   1008610   1405.19        17837.061      15.469883      13.397312      44.261469    
   1008620   1419.8235      15657.943      15.469883      13.397312      44.329798    
   1008630   1379.566       16124.848      15.469883      13.397312      44.435243    
   1008640   1381.6907      18719.761      15.469883      13.397312      44.310113    
   1008650   1416.7807      21820.021      15.469883      13.397312      44.336316    
   1008660   1449.9015      21852.75       15.469883      13.397312      44.394361    
   1008670   1438.8978      20431.715      15.469883      13.397312      44.347779    
   1008680   1421.9652      18177.485      15.469883      13.397312      44.254139    
   1008690   1399.2499      17595.1        15.469883      13.397312      44.304315    
   1008700   1399.8482      17415.479      15.469883      13.397312      44.292608    
   1008710   1442.9093      15872.614      15.469883      13.397312      44.264115    
   1008720   1422.6145      16512.654      15.469883      13.397312      44.315752    
   1008730   1416.8585      16067.997      15.469883      13.397312      44.347747    
   1008740   1423.4463      15769.542      15.469883      13.397312      44.182805    
   1008750   1438.5817      16640.7        15.469883      13.397312      44.359539    
   1008760   1441.2385      17052.026      15.469883      13.397312      44.35908     
   1008770   1404.9884      17616.794      15.469883      13.397312      44.375662    
   1008780   1374.2543      18558.09       15.469883      13.397312      44.50394     
[...]
   1070240   42816189       115015.22      15.469883      13.397312      164293.56    
   1070250   42904841       114691.53      15.469883      13.397312      164996.06    
   1070260   42994505       114506.94      15.469883      13.397312      165698.93    
   1070270   43469227       115386.85      15.469883      13.397312      166403.99    
   1070280   44190677       116796         15.469883      13.397312      167114.21    
   1070290   44676389       117467.03      15.469883      13.397312      167829.61    
   1070300   44768403       117145.35      15.469883      13.397312      168547.22    
   1070310   44862027       116972.27      15.469883      13.397312      169265.22    
   1070320   45357548       117868.9       15.469883      13.397312      169985.45    
   1070330   46109142       119303.42      15.469883      13.397312      170710.96    
   1070340   46615589       119996.23      15.469883      13.397312      171441.76    
   1070350   46712314       119666.79      15.469883      13.397312      172174.82    
   1070360   46809896       119466.17      15.469883      13.397312      172908.26    
   1070370   47327552       120381.19      15.469883      13.397312      173644       
   1070380   48113356       121860.26      15.469883      13.397312      174385.12    
   1070390   48642692       122562.12      15.469883      13.397312      175131.65    
   1070400   48743276       122237.65      15.469883      13.397312      175880.49    
   1070410   48844884       122045.34      15.469883      13.397312      176629.72    
   1070420   49384120       122964.44      15.469883      13.397312      177381.29    
   1070430   50202709       124476.26      15.469883      13.397312      178138.36    
   1070440   50753195       125203.43      15.469883      13.397312      178900.96    
   1070450   50858472       124858.48      15.469883      13.397312      179665.91    
   1070460   50964783       124655.54      15.469883      13.397312      180431.27    
   1070470   51528612       125619.7       15.469883      13.397312      181199.02    
   1070480   52386644       127141.54      15.469883      13.397312      181972.38    
   1070490   52963628       127882.17      15.469883      13.397312      182751.39    
   1070500   53073260       127553.08      15.469883      13.397312      183532.81    
   1070510   53182776       127343.97      15.469883      13.397312      184314.64    
   1070520   53770206       128329.97      15.469883      13.397312      185098.91    
   1070530   54664571       129902.27      15.469883      13.397312      185888.92    
   1070540   55266121       130652.92      15.469883      13.397312      186684.7     
   1070550   55380919       130290.72      15.469883      13.397312      187482.93    
   1070560   55495809       130079.86      15.469883      13.397312      188281.59    
   1070570   56109097       131065.07      15.469883      13.397312      189082.74    
   1070580   57042186       132676.23      15.469883      13.397312      189889.76    
   1070590   57669416       133447.59      15.469883      13.397312      190702.66    
   1070600   57788811       133093.14      15.469883      13.397312      191518.08    
   1070610   57910101       132881.42      15.469883      13.397312      192333.92    
   1070620   58549958       133889.82      15.469883      13.397312      193152.32    
   1070630   59522094       135531.54      15.469883      13.397312      193976.7     
   1070640   60175704       136321.47      15.469883      13.397312      194807.1     
   1070650   60300045       135952.82      15.469883      13.397312      195640.06    
   1070660   60425881       135724.3       15.469883      13.397312      196473.47    
   1070670   61093527       136743.57      15.469883      13.397312      197309.48    
   1070680   62106095       138421.49      15.469883      13.397312      198151.61    
   1070690   62788141       139236.99      15.469883      13.397312      198999.87    
   1070700   62917494       138867.45      15.469883      13.397312      199850.77    
   1070710   63048025       138638.7       15.469883      13.397312      200702.12    
   1070720   63745186       139686.44      15.469883      13.397312      201556.12    
   1070730   64803591       141399.95      15.469883      13.397312      202416.37    
   1070740   65515990       142225.93      15.469883      13.397312      203282.89    
   1070750   65651817       141847.57      15.469883      13.397312      204152.1     
   1070760   65788616       141611.98      15.469883      13.397312      205021.77    
   1070770   66515270       142680.98      15.469883      13.397312      205894.15    
   1070780   67622693       144428.7       15.469883      13.397312      206772.92    
   1070790   68365682       145280.45      15.469883      13.397312      207658.09    
   1070800   68508014       144898.96      15.469883      13.397312      208546.01    
   1070810   68650244       144659.25      15.469883      13.397312      209434.4     
   1070820   69407938       145751.12      15.469883      13.397312      210325.55    
   1070830   70560309       147535.48      15.469883      13.397312      211223.23    
   1070840   71337049       148409.58      15.469883      13.397312      212127.46    
   1070850   71485277       148012.02      15.469883      13.397312      213034.49    
   1070860   71633779       147760.82      15.469883      13.397312      213941.99    
   1070870   72423043       148869.11      15.469883      13.397312      214852.33    
   1070880   73629462       150696.79      15.469883      13.397312      215769.33    
   1070890   74439199       151597.5       15.469883      13.397312      216693.02    
   1070900   74592858       151194.86      15.469883      13.397312      217619.57    
   1070910   74747909       150942.87      15.469883      13.397312      218546.61    
   1070920   75575873       152087.84      15.469883      13.397312      219476.54    
   1070930   76832183       153949.94      15.469883      13.397312      220413.27    
   1070940   77676187       154865.99      15.469883      13.397312      221356.84    
   1070950   77836575       154446.99      15.469883      13.397312      222303.33    
   1070960   77997693       154183.66      15.469883      13.397312      223250.32    
   1070970   78863815       155350.84      15.469883      13.397312      224200.27    
   1070980   80176949       157258.46      15.469883      13.397312      225157.17    
   1070990   81056945       158183.74      15.469883      13.397312      226121.04    
   1071000   81224091       157769.04      15.469883      13.397312      227087.9     
   1071010   81393871       157507.34      15.469883      13.397312      228055.28    
   1071020   82292696       158689.46      15.469883      13.397312      229025.67    
   1071030   83659237       160623.63      15.469883      13.397312      230003.16    
   1071040   84579967       161585.23      15.469883      13.397312      230987.78    
   1071050   84755146       161167         15.469883      13.397312      231975.45    
   1071060   84932008       160883.22      15.469883      13.397312      232963.65    
   1071070   85871540       162082.14      15.469883      13.397312      233954.92    
   1071080   87296604       164069.34      15.469883      13.397312      234953.45    
   1071090   88254550       165051.11      15.469883      13.397312      235959.27    
   1071100   88436124       164619.92      15.469883      13.397312      236968.2     
   1071110   88619610       164347.95      15.469883      13.397312      237977.66    
   1071120   89603455       165590.16      15.469883      13.397312      238990.27    
   1071130   91099686       167615.16      15.469883      13.397312      240010.29    
   1071140   92101018       168622.12      15.469883      13.397312      241037.75    
   1071150   92291270       168178.33      15.469883      13.397312      242068.4     
   1071160   92482875       167884.45      15.469883      13.397312      243099.58    
   1071170   93505733       169140.79      15.469883      13.397312      244133.99    
   1071180   95064270       171211.33      15.469883      13.397312      245175.97    
   1071190   96109312       172245.3       15.469883      13.397312      246225.54    
   1071200   96307438       171798.2       15.469883      13.397312      247278.37    
   1071210   96506851       171503.63      15.469883      13.397312      248331.75    
   1071220   97572389       172781.23      15.469883      13.397312      249388.42    
   1071230   99193567       174895.3       15.469883      13.397312      250452.82    
   1071240   1.0028238e+08  175944.03      15.469883      13.397312      251524.98    
   1071250   1.004898e+08   175489.9       15.469883      13.397312      252600.47    
   1071260   1.0069853e+08  175178.66      15.469883      13.397312      253676.52    
   1071270   1.0181541e+08  176476.53      15.469883      13.397312      254755.94    
   1071280   1.0350651e+08  178638.64      15.469883      13.397312      255843.25    
   1071290   1.0464089e+08  179717.49      15.469883      13.397312      256938.48    
   1071300   1.0485689e+08  179249.52      15.469883      13.397312      258037.12    
   1071310   1.0507504e+08  178942.12      15.469883      13.397312      259136.33    
   1071320   1.0624003e+08  180271.7       15.469883      13.397312      260238.98    
   1071330   1.0800418e+08  182475.32      15.469883      13.397312      261349.69    
   1071340   1.0918833e+08  183574.62      15.469883      13.397312      262468.5     
   1071350   1.0941454e+08  183109.63      15.469883      13.397312      263590.78    
   1071360   1.0964273e+08  182779.97      15.469883      13.397312      264713.65    
   1071370   1.1085562e+08  184132.37      15.469883      13.397312      265840.03    
   1071380   1.1269864e+08  186393.87      15.469883      13.397312      266974.64    
   1071390   1.1393199e+08  187520.54      15.469883      13.397312      268117.54    
   1071400   1.1416867e+08  187035.21      15.469883      13.397312      269263.97    
   1071410   1.1440613e+08  186710.13      15.469883      13.397312      270411.01    
   1071420   1.156737e+08   188096.71      15.469883      13.397312      271561.63    
   1071430   1.1759306e+08  190394.54      15.469883      13.397312      272720.67    
   1071440   1.1888314e+08  191545.62      15.469883      13.397312      273888.16    
   1071450   1.1912949e+08  191054.8       15.469883      13.397312      275059.26    
   1071460   1.1937789e+08  190710.17      15.469883      13.397312      276230.99    
   1071470   1.2070142e+08  192123.01      15.469883      13.397312      277406.37    
   1071480   1.2270615e+08  194475.71      15.469883      13.397312      278590.36    
   1071490   1.2405436e+08  195657.14      15.469883      13.397312      279782.97    
   1071500   1.2431085e+08  195160.93      15.469883      13.397312      280979.29    
   1071510   1.2457002e+08  194815.44      15.469883      13.397312      282176.23    
   1071520   1.2594697e+08  196247.42      15.469883      13.397312      283376.91    
   1071530   1.2803769e+08  198650.8       15.469883      13.397312      284586.38    
   1071540   1.2944277e+08  199860.69      15.469883      13.397312      285804.66    
   1071550   1.2971134e+08  199347.93      15.469883      13.397312      287026.73    
   1071560   1.2998134e+08  198988.03      15.469883      13.397312      288249.43    
   1071570   1.3141786e+08  200453.79      15.469883      13.397312      289475.95    
   1071580   1.3360594e+08  202913.63      15.469883      13.397312      290711.45    
   1071590   1.3507148e+08  204154.96      15.469883      13.397312      291955.96    
   1071600   1.3535159e+08  203638.08      15.469883      13.397312      293204.32    
   1071610   1.3563419e+08  203277.5       15.469883      13.397312      294453.34    
   1071620   1.3713582e+08  204779.6       15.469883      13.397312      295706.26    
   1071630   1.394162e+08   207279.82      15.469883      13.397312      296968.35    
   1071640   1.4094713e+08  208544.63      15.469883      13.397312      298239.65    
   1071650   1.4123864e+08  208015.78      15.469883      13.397312      299514.88    
   1071660   1.4153421e+08  207638.72      15.469883      13.397312      300790.78    
   1071670   1.4309969e+08  209159.94      15.469883      13.397312      302070.67    
   1071680   1.4547444e+08  211722.7       15.469883      13.397312      303359.92    
   1071690   1.4707214e+08  213017.49      15.469883      13.397312      304658.57    
   1071700   1.473757e+08   212483.76      15.469883      13.397312      305961.25    
   1071710   1.476824e+08   212099.05      15.469883      13.397312      307264.62    
   1071720   1.4931234e+08  213659.74      15.469883      13.397312      308572.05    
   1071730   1.5179753e+08  216272.21      15.469883      13.397312      309889.05    
   1071740   1.5346761e+08  217600.7       15.469883      13.397312      311215.66    
   1071750   1.5378557e+08  217051.24      15.469883      13.397312      312546.37    
   1071760   1.5410618e+08  216653         15.469883      13.397312      313877.79    
   1071770   1.5581066e+08  218234.53      15.469883      13.397312      315213.36    
   1071780   1.5839869e+08  220910.02      15.469883      13.397312      316558.71    
   1071790   1.6014003e+08  222273.66      15.469883      13.397312      317913.86    
   1071800   1.604713e+08   221720.09      15.469883      13.397312      319273.22    
   1071810   1.6080526e+08  221317.11      15.469883      13.397312      320633.29    
   1071820   1.6258173e+08  222936.22      15.469883      13.397312      321997.61    
   1071830   1.6527875e+08  225664.18      15.469883      13.397312      323371.91    
   1071840   1.6709577e+08  227050.75      15.469883      13.397312      324756.24    
   1071850   1.6744049e+08  226473.97      15.469883      13.397312      326144.85    
   1071860   1.6779032e+08  226057.05      15.469883      13.397312      327534.19    
   1071870   1.6964176e+08  227704.25      15.469883      13.397312      328927.88    
   1071880   1.7246238e+08  230500.82      15.469883      13.397312      330331.76    
   1071890   1.7435626e+08  231918.16      15.469883      13.397312      331745.87    
   1071900   1.7471686e+08  231336.05      15.469883      13.397312      333164.37    
   1071910   1.750814e+08   230916.29      15.469883      13.397312      334583.62    
   1071920   1.7701526e+08  232598.41      15.469883      13.397312      336007.3     
   1071930   1.7996129e+08  235449.45      15.469883      13.397312      337441.4     
   1071940   1.8193976e+08  236909.66      15.469883      13.397312      338885.95    
   1071950   1.8231589e+08  236314.85      15.469883      13.397312      340334.98    
   1071960   1.8269614e+08  235876.65      15.469883      13.397312      341784.77    
   1071970   1.8471409e+08  237587.45      15.469883      13.397312      343239.09    
   1071980   1.8778306e+08  240496.11      15.469883      13.397312      344704.05    
   1071990   1.8984236e+08  241988.89      15.469883      13.397312      346179.7     
   1072000   1.9023356e+08  241381.26      15.469883      13.397312      347659.91    
   1072010   1.9063059e+08  240939.81      15.469883      13.397312      349140.91    
   1072020   1.9274182e+08  242692.37      15.469883      13.397312      350626.53    
   1072030   1.9593975e+08  245660.8       15.469883      13.397312      352123.02    
   1072040   1.9809047e+08  247182.33      15.469883      13.397312      353630.43    
   1072050   1.9850133e+08  246566.63      15.469883      13.397312      355142.5     
   1072060   1.9891632e+08  246110.26      15.469883      13.397312      356655.37    
   1072070   2.0111888e+08  247903.9       15.469883      13.397312      358172.97    
   1072080   2.044661e+08   250936.16      15.469883      13.397312      359701.67    
   1072090   2.0671098e+08  252499.72      15.469883      13.397312      361241.51    
   1072100   2.0713858e+08  251872.9       15.469883      13.397312      362786.13    
   1072110   2.0757045e+08  251406.01      15.469883      13.397312      364331.57    
   1072120   2.0986297e+08  253230.12      15.469883      13.397312      365881.83    
   1072130   2.1335487e+08  256332.49      15.469883      13.397312      367443.43    
   1072140   2.1569789e+08  257930.06      15.469883      13.397312      369016.42    
   1072150   2.1614568e+08  257289.36      15.469883      13.397312      370594.28    
   1072160   2.1659511e+08  256807.06      15.469883      13.397312      372172.98    
   1072170   2.1900024e+08  258674.74      15.469883      13.397312      373756.6     
   1072180   2.2263949e+08  261850.91      15.469883      13.397312      375351.81    
   1072190   2.2508208e+08  263477.52      15.469883      13.397312      376958.65    
   1072200   2.2554711e+08  262824.04      15.469883      13.397312      378570.48    
   1072210   2.2601787e+08  262337.65      15.469883      13.397312      380183.15    
   1072220   2.2851704e+08  264240.02      15.469883      13.397312      381800.86    
   1072230   2.3231409e+08  267482.36      15.469883      13.397312      383430.4     
   1072240   2.3486434e+08  269139.51      15.469883      13.397312      385071.83    
   1072250   2.3535164e+08  268470.44      15.469883      13.397312      386718.35    
   1072260   2.3584364e+08  267964.84      15.469883      13.397312      388365.73    
   1072270   2.38451e+08    269887.91      15.469883      13.397312      390018.25    
   1072280   2.4241084e+08  273202.24      15.469883      13.397312      391682.87    
   1072290   2.4507185e+08  274907.85      15.469883      13.397312      393359.62    
   1072300   2.4557917e+08  274235.48      15.469883      13.397312      395041.58    
   1072310   2.4609147e+08  273716.67      15.469883      13.397312      396724.42    
   1072320   2.4881898e+08  275690.51      15.469883      13.397312      398412.51    
   1072330   2.5296497e+08  279089.12      15.469883      13.397312      400112.95    
   1072340   2.5574274e+08  280837.16      15.469883      13.397312      401825.79    
   1072350   2.5627257e+08  280150.94      15.469883      13.397312      403543.95    
   1072360   2.5680595e+08  279615.5       15.469883      13.397312      405263.01    
   1072370   2.5964932e+08  281626.23      15.469883      13.397312      406987.43    
   1072380   2.6396573e+08  285081.44      15.469883      13.397312      408724.47    
   1072390   2.668619e+08   286869.79      15.469883      13.397312      410474.18    
   1072400   2.6741402e+08  286169.05      15.469883      13.397312      412229.31    
   1072410   2.6797106e+08  285619.81      15.469883      13.397312      413985.37    
   1072420   2.7093551e+08  287676.23      15.469883      13.397312      415746.91    
   1072430   2.7543824e+08  291201.8       15.469883      13.397312      417521.34    
   1072440   2.7846595e+08  293034.53      15.469883      13.397312      419308.7     
   1072450   2.7904166e+08  292320.97      15.469883      13.397312      421101.61    
   1072460   2.7962288e+08  291762.07      15.469883      13.397312      422895.46    
   1072470   2.827163e+08   293859.62      15.469883      13.397312      424694.91    
   1072480   2.8741288e+08  297470.07      15.469883      13.397312      426507.53    
   1072490   2.9056993e+08  299332.07      15.469883      13.397312      428333.37    
   1072500   2.9117168e+08  298604.35      15.469883      13.397312      430164.86    
   1072510   2.9177871e+08  298046.35      15.469883      13.397312      431997.32    
ERROR: Lost atoms: original 672 current 671 (../thermo.cpp:488)
Last command: run            10000000 # 10ns
