 # Ce4 O8
  
          12  atoms
           2  atom types
 
0.0 5.27608925 xlo xhi
0.0 5.27608925 ylo yhi
0.0 5.27608925 zlo zhi
 
Masses
 
            1   140.11600000            # Ce
            2   15.99900000             # O
 
Atoms
 
1 1 4.000000 0.0 0.0 0.0
2 1 4.000000 0.0 2.638044625 2.638044625
3 1 4.000000 2.638044625 0.0 2.638044625
4 1 4.000000 2.638044625 2.638044625 0.0
5 2 -2.000000 1.3190223125 1.3190223125 3.9570669374999996
6 2 -2.000000 1.3190223125 3.9570669374999996 3.9570669374999996
7 2 -2.000000 1.3190223125 3.9570669374999996 1.3190223125
8 2 -2.000000 1.3190223125 1.3190223125 1.3190223125
9 2 -2.000000 3.9570669374999996 1.3190223125 1.3190223125
10 2 -2.000000 3.9570669374999996 3.9570669374999996 1.3190223125
11 2 -2.000000 3.9570669374999996 3.9570669374999996 3.9570669374999996
12 2 -2.000000 3.9570669374999996 1.3190223125 3.9570669374999996
