 # Ce4 O8
  
          12  atoms
           2  atom types
 
0.0 6.1399463500000016 xlo xhi
0.0 6.1399463500000016 ylo yhi
0.0 6.1399463500000016 zlo zhi
 
Masses
 
            1   140.11600000            # Ce
            2   15.99900000             # O
 
Atoms
 
1 1 4.000000 0.0 0.0 0.0
2 1 4.000000 0.0 3.0699731750000008 3.0699731750000008
3 1 4.000000 3.0699731750000008 0.0 3.0699731750000008
4 1 4.000000 3.0699731750000008 3.0699731750000008 0.0
5 2 -2.000000 1.5349865875000004 1.5349865875000004 4.6049597625
6 2 -2.000000 1.5349865875000004 4.6049597625 4.6049597625
7 2 -2.000000 1.5349865875000004 4.6049597625 1.5349865875000004
8 2 -2.000000 1.5349865875000004 1.5349865875000004 1.5349865875000004
9 2 -2.000000 4.6049597625 1.5349865875000004 1.5349865875000004
10 2 -2.000000 4.6049597625 4.6049597625 1.5349865875000004
11 2 -2.000000 4.6049597625 4.6049597625 4.6049597625
12 2 -2.000000 4.6049597625 1.5349865875000004 4.6049597625
