 # Ce4 O8
  
          12  atoms
           2  atom types
 
0.0 6.659354100000002 xlo xhi
0.0 6.659354100000002 ylo yhi
0.0 6.659354100000002 zlo zhi
 
Masses
 
            1   140.11600000            # Ce
            2   15.99900000             # O
 
Atoms
 
1 1 4.000000 0.0 0.0 0.0
2 1 4.000000 0.0 3.329677050000001 3.329677050000001
3 1 4.000000 3.329677050000001 0.0 3.329677050000001
4 1 4.000000 3.329677050000001 3.329677050000001 0.0
5 2 -2.000000 1.6648385250000004 1.6648385250000004 4.994515575
6 2 -2.000000 1.6648385250000004 4.994515575 4.994515575
7 2 -2.000000 1.6648385250000004 4.994515575 1.6648385250000004
8 2 -2.000000 1.6648385250000004 1.6648385250000004 1.6648385250000004
9 2 -2.000000 4.994515575 1.6648385250000004 1.6648385250000004
10 2 -2.000000 4.994515575 4.994515575 1.6648385250000004
11 2 -2.000000 4.994515575 4.994515575 4.994515575
12 2 -2.000000 4.994515575 1.6648385250000004 4.994515575
