 # Ce4 O8
  
          12  atoms
           2  atom types
 
0.0 6.714028600000002 xlo xhi
0.0 6.714028600000002 ylo yhi
0.0 6.714028600000002 zlo zhi
 
Masses
 
            1   140.11600000            # Ce
            2   15.99900000             # O
 
Atoms
 
1 1 4.000000 0.0 0.0 0.0
2 1 4.000000 0.0 3.357014300000001 3.357014300000001
3 1 4.000000 3.357014300000001 0.0 3.357014300000001
4 1 4.000000 3.357014300000001 3.357014300000001 0.0
5 2 -2.000000 1.6785071500000004 1.6785071500000004 5.03552145
6 2 -2.000000 1.6785071500000004 5.03552145 5.03552145
7 2 -2.000000 1.6785071500000004 5.03552145 1.6785071500000004
8 2 -2.000000 1.6785071500000004 1.6785071500000004 1.6785071500000004
9 2 -2.000000 5.03552145 1.6785071500000004 1.6785071500000004
10 2 -2.000000 5.03552145 5.03552145 1.6785071500000004
11 2 -2.000000 5.03552145 5.03552145 5.03552145
12 2 -2.000000 5.03552145 1.6785071500000004 5.03552145
