 # Ce4 O8
  
          12  atoms
           2  atom types
 
0.0 6.834312500000002 xlo xhi
0.0 6.834312500000002 ylo yhi
0.0 6.834312500000002 zlo zhi
 
Masses
 
            1   140.11600000            # Ce
            2   15.99900000             # O
 
Atoms
 
1 1 4.000000 0.0 0.0 0.0
2 1 4.000000 0.0 3.417156250000001 3.417156250000001
3 1 4.000000 3.417156250000001 0.0 3.417156250000001
4 1 4.000000 3.417156250000001 3.417156250000001 0.0
5 2 -2.000000 1.7085781250000005 1.7085781250000005 5.125734375
6 2 -2.000000 1.7085781250000005 5.125734375 5.125734375
7 2 -2.000000 1.7085781250000005 5.125734375 1.7085781250000005
8 2 -2.000000 1.7085781250000005 1.7085781250000005 1.7085781250000005
9 2 -2.000000 5.125734375 1.7085781250000005 1.7085781250000005
10 2 -2.000000 5.125734375 5.125734375 1.7085781250000005
11 2 -2.000000 5.125734375 5.125734375 5.125734375
12 2 -2.000000 5.125734375 1.7085781250000005 5.125734375
