 # Ce4 O8
  
          12  atoms
           2  atom types
 
0.0 6.806975250000001 xlo xhi
0.0 6.806975250000001 ylo yhi
0.0 6.806975250000001 zlo zhi
 
Masses
 
            1   140.11600000            # Ce
            2   15.99900000             # O
 
Atoms
 
1 1 4.000000 0.0 0.0 0.0
2 1 4.000000 0.0 3.4034876250000003 3.4034876250000003
3 1 4.000000 3.4034876250000003 0.0 3.4034876250000003
4 1 4.000000 3.4034876250000003 3.4034876250000003 0.0
5 2 -2.000000 1.7017438125000002 1.7017438125000002 5.1052314375
6 2 -2.000000 1.7017438125000002 5.1052314375 5.1052314375
7 2 -2.000000 1.7017438125000002 5.1052314375 1.7017438125000002
8 2 -2.000000 1.7017438125000002 1.7017438125000002 1.7017438125000002
9 2 -2.000000 5.1052314375 1.7017438125000002 1.7017438125000002
10 2 -2.000000 5.1052314375 5.1052314375 1.7017438125000002
11 2 -2.000000 5.1052314375 5.1052314375 5.1052314375
12 2 -2.000000 5.1052314375 1.7017438125000002 5.1052314375
