 # Ce4 O8
  
          12  atoms
           2  atom types
 
0.0 5.2159473 xlo xhi
0.0 5.2159473 ylo yhi
0.0 5.2159473 zlo zhi
 
Masses
 
            1   140.11600000            # Ce
            2   15.99900000             # O
 
Atoms
 
1 1 4.000000 0.0 0.0 0.0
2 1 4.000000 0.0 2.60797365 2.60797365
3 1 4.000000 2.60797365 0.0 2.60797365
4 1 4.000000 2.60797365 2.60797365 0.0
5 2 -2.000000 1.303986825 1.303986825 3.9119604749999994
6 2 -2.000000 1.303986825 3.9119604749999994 3.9119604749999994
7 2 -2.000000 1.303986825 3.9119604749999994 1.303986825
8 2 -2.000000 1.303986825 1.303986825 1.303986825
9 2 -2.000000 3.9119604749999994 1.303986825 1.303986825
10 2 -2.000000 3.9119604749999994 3.9119604749999994 1.303986825
11 2 -2.000000 3.9119604749999994 3.9119604749999994 3.9119604749999994
12 2 -2.000000 3.9119604749999994 1.303986825 3.9119604749999994
