 # Ce4 O8
  
          12  atoms
           2  atom types
 
0.0 5.926715800000001 xlo xhi
0.0 5.926715800000001 ylo yhi
0.0 5.926715800000001 zlo zhi
 
Masses
 
            1   140.11600000            # Ce
            2   15.99900000             # O
 
Atoms
 
1 1 4.000000 0.0 0.0 0.0
2 1 4.000000 0.0 2.9633579000000005 2.9633579000000005
3 1 4.000000 2.9633579000000005 0.0 2.9633579000000005
4 1 4.000000 2.9633579000000005 2.9633579000000005 0.0
5 2 -2.000000 1.4816789500000003 1.4816789500000003 4.44503685
6 2 -2.000000 1.4816789500000003 4.44503685 4.44503685
7 2 -2.000000 1.4816789500000003 4.44503685 1.4816789500000003
8 2 -2.000000 1.4816789500000003 1.4816789500000003 1.4816789500000003
9 2 -2.000000 4.44503685 1.4816789500000003 1.4816789500000003
10 2 -2.000000 4.44503685 4.44503685 1.4816789500000003
11 2 -2.000000 4.44503685 4.44503685 4.44503685
12 2 -2.000000 4.44503685 1.4816789500000003 4.44503685
