 # Ce4 O8
  
          12  atoms
           2  atom types
 
0.0 6.817910150000002 xlo xhi
0.0 6.817910150000002 ylo yhi
0.0 6.817910150000002 zlo zhi
 
Masses
 
            1   140.11600000            # Ce
            2   15.99900000             # O
 
Atoms
 
1 1 4.000000 0.0 0.0 0.0
2 1 4.000000 0.0 3.408955075000001 3.408955075000001
3 1 4.000000 3.408955075000001 0.0 3.408955075000001
4 1 4.000000 3.408955075000001 3.408955075000001 0.0
5 2 -2.000000 1.7044775375000005 1.7044775375000005 5.1134326125000005
6 2 -2.000000 1.7044775375000005 5.1134326125000005 5.1134326125000005
7 2 -2.000000 1.7044775375000005 5.1134326125000005 1.7044775375000005
8 2 -2.000000 1.7044775375000005 1.7044775375000005 1.7044775375000005
9 2 -2.000000 5.1134326125000005 1.7044775375000005 1.7044775375000005
10 2 -2.000000 5.1134326125000005 5.1134326125000005 1.7044775375000005
11 2 -2.000000 5.1134326125000005 5.1134326125000005 5.1134326125000005
12 2 -2.000000 5.1134326125000005 1.7044775375000005 5.1134326125000005
