 # Ce4 O8
  
          12  atoms
           2  atom types
 
0.0 6.435188650000001 xlo xhi
0.0 6.435188650000001 ylo yhi
0.0 6.435188650000001 zlo zhi
 
Masses
 
            1   140.11600000            # Ce
            2   15.99900000             # O
 
Atoms
 
1 1 4.000000 0.0 0.0 0.0
2 1 4.000000 0.0 3.2175943250000003 3.2175943250000003
3 1 4.000000 3.2175943250000003 0.0 3.2175943250000003
4 1 4.000000 3.2175943250000003 3.2175943250000003 0.0
5 2 -2.000000 1.6087971625000002 1.6087971625000002 4.8263914875
6 2 -2.000000 1.6087971625000002 4.8263914875 4.8263914875
7 2 -2.000000 1.6087971625000002 4.8263914875 1.6087971625000002
8 2 -2.000000 1.6087971625000002 1.6087971625000002 1.6087971625000002
9 2 -2.000000 4.8263914875 1.6087971625000002 1.6087971625000002
10 2 -2.000000 4.8263914875 4.8263914875 1.6087971625000002
11 2 -2.000000 4.8263914875 4.8263914875 4.8263914875
12 2 -2.000000 4.8263914875 1.6087971625000002 4.8263914875
