 # Ce4 O8
  
          12  atoms
           2  atom types
 
0.0 6.484395700000001 xlo xhi
0.0 6.484395700000001 ylo yhi
0.0 6.484395700000001 zlo zhi
 
Masses
 
            1   140.11600000            # Ce
            2   15.99900000             # O
 
Atoms
 
1 1 4.000000 0.0 0.0 0.0
2 1 4.000000 0.0 3.2421978500000006 3.2421978500000006
3 1 4.000000 3.2421978500000006 0.0 3.2421978500000006
4 1 4.000000 3.2421978500000006 3.2421978500000006 0.0
5 2 -2.000000 1.6210989250000003 1.6210989250000003 4.863296775
6 2 -2.000000 1.6210989250000003 4.863296775 4.863296775
7 2 -2.000000 1.6210989250000003 4.863296775 1.6210989250000003
8 2 -2.000000 1.6210989250000003 1.6210989250000003 1.6210989250000003
9 2 -2.000000 4.863296775 1.6210989250000003 1.6210989250000003
10 2 -2.000000 4.863296775 4.863296775 1.6210989250000003
11 2 -2.000000 4.863296775 4.863296775 4.863296775
12 2 -2.000000 4.863296775 1.6210989250000003 4.863296775
