 # Ce4 O8
  
          12  atoms
           2  atom types
 
0.0 5.24328455 xlo xhi
0.0 5.24328455 ylo yhi
0.0 5.24328455 zlo zhi
 
Masses
 
            1   140.11600000            # Ce
            2   15.99900000             # O
 
Atoms
 
1 1 4.000000 0.0 0.0 0.0
2 1 4.000000 0.0 2.621642275 2.621642275
3 1 4.000000 2.621642275 0.0 2.621642275
4 1 4.000000 2.621642275 2.621642275 0.0
5 2 -2.000000 1.3108211375 1.3108211375 3.9324634124999993
6 2 -2.000000 1.3108211375 3.9324634124999993 3.9324634124999993
7 2 -2.000000 1.3108211375 3.9324634124999993 1.3108211375
8 2 -2.000000 1.3108211375 1.3108211375 1.3108211375
9 2 -2.000000 3.9324634124999993 1.3108211375 1.3108211375
10 2 -2.000000 3.9324634124999993 3.9324634124999993 1.3108211375
11 2 -2.000000 3.9324634124999993 3.9324634124999993 3.9324634124999993
12 2 -2.000000 3.9324634124999993 1.3108211375 3.9324634124999993
