 # Ce4 O8
  
          12  atoms
           2  atom types
 
0.0 6.440656100000001 xlo xhi
0.0 6.440656100000001 ylo yhi
0.0 6.440656100000001 zlo zhi
 
Masses
 
            1   140.11600000            # Ce
            2   15.99900000             # O
 
Atoms
 
1 1 4.000000 0.0 0.0 0.0
2 1 4.000000 0.0 3.2203280500000004 3.2203280500000004
3 1 4.000000 3.2203280500000004 0.0 3.2203280500000004
4 1 4.000000 3.2203280500000004 3.2203280500000004 0.0
5 2 -2.000000 1.6101640250000002 1.6101640250000002 4.830492075
6 2 -2.000000 1.6101640250000002 4.830492075 4.830492075
7 2 -2.000000 1.6101640250000002 4.830492075 1.6101640250000002
8 2 -2.000000 1.6101640250000002 1.6101640250000002 1.6101640250000002
9 2 -2.000000 4.830492075 1.6101640250000002 1.6101640250000002
10 2 -2.000000 4.830492075 4.830492075 1.6101640250000002
11 2 -2.000000 4.830492075 4.830492075 4.830492075
12 2 -2.000000 4.830492075 1.6101640250000002 4.830492075
