 # Ce4 O8
  
          12  atoms
           2  atom types
 
0.0 5.1831426 xlo xhi
0.0 5.1831426 ylo yhi
0.0 5.1831426 zlo zhi
 
Masses
 
            1   140.11600000            # Ce
            2   15.99900000             # O
 
Atoms
 
1 1 4.000000 0.0 0.0 0.0
2 1 4.000000 0.0 2.5915713 2.5915713
3 1 4.000000 2.5915713 0.0 2.5915713
4 1 4.000000 2.5915713 2.5915713 0.0
5 2 -2.000000 1.29578565 1.29578565 3.8873569499999996
6 2 -2.000000 1.29578565 3.8873569499999996 3.8873569499999996
7 2 -2.000000 1.29578565 3.8873569499999996 1.29578565
8 2 -2.000000 1.29578565 1.29578565 1.29578565
9 2 -2.000000 3.8873569499999996 1.29578565 1.29578565
10 2 -2.000000 3.8873569499999996 3.8873569499999996 1.29578565
11 2 -2.000000 3.8873569499999996 3.8873569499999996 3.8873569499999996
12 2 -2.000000 3.8873569499999996 1.29578565 3.8873569499999996
