 # Ce4 O8
  
          12  atoms
           2  atom types
 
0.0 5.2378171 xlo xhi
0.0 5.2378171 ylo yhi
0.0 5.2378171 zlo zhi
 
Masses
 
            1   140.11600000            # Ce
            2   15.99900000             # O
 
Atoms
 
1 1 4.000000 0.0 0.0 0.0
2 1 4.000000 0.0 2.61890855 2.61890855
3 1 4.000000 2.61890855 0.0 2.61890855
4 1 4.000000 2.61890855 2.61890855 0.0
5 2 -2.000000 1.309454275 1.309454275 3.9283628249999993
6 2 -2.000000 1.309454275 3.9283628249999993 3.9283628249999993
7 2 -2.000000 1.309454275 3.9283628249999993 1.309454275
8 2 -2.000000 1.309454275 1.309454275 1.309454275
9 2 -2.000000 3.9283628249999993 1.309454275 1.309454275
10 2 -2.000000 3.9283628249999993 3.9283628249999993 1.309454275
11 2 -2.000000 3.9283628249999993 3.9283628249999993 3.9283628249999993
12 2 -2.000000 3.9283628249999993 1.309454275 3.9283628249999993
