 # Ce4 O8
  
          12  atoms
           2  atom types
 
0.0 5.790029550000002 xlo xhi
0.0 5.790029550000002 ylo yhi
0.0 5.790029550000002 zlo zhi
 
Masses
 
            1   140.11600000            # Ce
            2   15.99900000             # O
 
Atoms
 
1 1 4.000000 0.0 0.0 0.0
2 1 4.000000 0.0 2.895014775000001 2.895014775000001
3 1 4.000000 2.895014775000001 0.0 2.895014775000001
4 1 4.000000 2.895014775000001 2.895014775000001 0.0
5 2 -2.000000 1.4475073875000004 1.4475073875000004 4.3425221625
6 2 -2.000000 1.4475073875000004 4.3425221625 4.3425221625
7 2 -2.000000 1.4475073875000004 4.3425221625 1.4475073875000004
8 2 -2.000000 1.4475073875000004 1.4475073875000004 1.4475073875000004
9 2 -2.000000 4.3425221625 1.4475073875000004 1.4475073875000004
10 2 -2.000000 4.3425221625 4.3425221625 1.4475073875000004
11 2 -2.000000 4.3425221625 4.3425221625 4.3425221625
12 2 -2.000000 4.3425221625 1.4475073875000004 4.3425221625
