 # Ce4 O8
  
          12  atoms
           2  atom types
 
0.0 5.833769150000001 xlo xhi
0.0 5.833769150000001 ylo yhi
0.0 5.833769150000001 zlo zhi
 
Masses
 
            1   140.11600000            # Ce
            2   15.99900000             # O
 
Atoms
 
1 1 4.000000 0.0 0.0 0.0
2 1 4.000000 0.0 2.9168845750000005 2.9168845750000005
3 1 4.000000 2.9168845750000005 0.0 2.9168845750000005
4 1 4.000000 2.9168845750000005 2.9168845750000005 0.0
5 2 -2.000000 1.4584422875000003 1.4584422875000003 4.375326862500001
6 2 -2.000000 1.4584422875000003 4.375326862500001 4.375326862500001
7 2 -2.000000 1.4584422875000003 4.375326862500001 1.4584422875000003
8 2 -2.000000 1.4584422875000003 1.4584422875000003 1.4584422875000003
9 2 -2.000000 4.375326862500001 1.4584422875000003 1.4584422875000003
10 2 -2.000000 4.375326862500001 4.375326862500001 1.4584422875000003
11 2 -2.000000 4.375326862500001 4.375326862500001 4.375326862500001
12 2 -2.000000 4.375326862500001 1.4584422875000003 4.375326862500001
