 # Ce4 O8
  
          12  atoms
           2  atom types
 
0.0 6.5828098000000015 xlo xhi
0.0 6.5828098000000015 ylo yhi
0.0 6.5828098000000015 zlo zhi
 
Masses
 
            1   140.11600000            # Ce
            2   15.99900000             # O
 
Atoms
 
1 1 4.000000 0.0 0.0 0.0
2 1 4.000000 0.0 3.2914049000000007 3.2914049000000007
3 1 4.000000 3.2914049000000007 0.0 3.2914049000000007
4 1 4.000000 3.2914049000000007 3.2914049000000007 0.0
5 2 -2.000000 1.6457024500000004 1.6457024500000004 4.937107350000001
6 2 -2.000000 1.6457024500000004 4.937107350000001 4.937107350000001
7 2 -2.000000 1.6457024500000004 4.937107350000001 1.6457024500000004
8 2 -2.000000 1.6457024500000004 1.6457024500000004 1.6457024500000004
9 2 -2.000000 4.937107350000001 1.6457024500000004 1.6457024500000004
10 2 -2.000000 4.937107350000001 4.937107350000001 1.6457024500000004
11 2 -2.000000 4.937107350000001 4.937107350000001 4.937107350000001
12 2 -2.000000 4.937107350000001 1.6457024500000004 4.937107350000001
