 # Ce4 O8
  
          12  atoms
           2  atom types
 
0.0 5.6096037 xlo xhi
0.0 5.6096037 ylo yhi
0.0 5.6096037 zlo zhi
 
Masses
 
            1   140.11600000            # Ce
            2   15.99900000             # O
 
Atoms
 
1 1 4.000000 0.0 0.0 0.0
2 1 4.000000 0.0 2.80480185 2.80480185
3 1 4.000000 2.80480185 0.0 2.80480185
4 1 4.000000 2.80480185 2.80480185 0.0
5 2 -2.000000 1.402400925 1.402400925 4.207202775
6 2 -2.000000 1.402400925 4.207202775 4.207202775
7 2 -2.000000 1.402400925 4.207202775 1.402400925
8 2 -2.000000 1.402400925 1.402400925 1.402400925
9 2 -2.000000 4.207202775 1.402400925 1.402400925
10 2 -2.000000 4.207202775 4.207202775 1.402400925
11 2 -2.000000 4.207202775 4.207202775 4.207202775
12 2 -2.000000 4.207202775 1.402400925 4.207202775
