 # Ce4 O8
  
          12  atoms
           2  atom types
 
0.0 5.49478725 xlo xhi
0.0 5.49478725 ylo yhi
0.0 5.49478725 zlo zhi
 
Masses
 
            1   140.11600000            # Ce
            2   15.99900000             # O
 
Atoms
 
1 1 4.000000 0.0 0.0 0.0
2 1 4.000000 0.0 2.747393625 2.747393625
3 1 4.000000 2.747393625 0.0 2.747393625
4 1 4.000000 2.747393625 2.747393625 0.0
5 2 -2.000000 1.3736968125 1.3736968125 4.1210904374999995
6 2 -2.000000 1.3736968125 4.1210904374999995 4.1210904374999995
7 2 -2.000000 1.3736968125 4.1210904374999995 1.3736968125
8 2 -2.000000 1.3736968125 1.3736968125 1.3736968125
9 2 -2.000000 4.1210904374999995 1.3736968125 1.3736968125
10 2 -2.000000 4.1210904374999995 4.1210904374999995 1.3736968125
11 2 -2.000000 4.1210904374999995 4.1210904374999995 4.1210904374999995
12 2 -2.000000 4.1210904374999995 1.3736968125 4.1210904374999995
