 # Ce4 O8
  
          12  atoms
           2  atom types
 
0.0 6.506265500000001 xlo xhi
0.0 6.506265500000001 ylo yhi
0.0 6.506265500000001 zlo zhi
 
Masses
 
            1   140.11600000            # Ce
            2   15.99900000             # O
 
Atoms
 
1 1 4.000000 0.0 0.0 0.0
2 1 4.000000 0.0 3.2531327500000007 3.2531327500000007
3 1 4.000000 3.2531327500000007 0.0 3.2531327500000007
4 1 4.000000 3.2531327500000007 3.2531327500000007 0.0
5 2 -2.000000 1.6265663750000003 1.6265663750000003 4.879699125
6 2 -2.000000 1.6265663750000003 4.879699125 4.879699125
7 2 -2.000000 1.6265663750000003 4.879699125 1.6265663750000003
8 2 -2.000000 1.6265663750000003 1.6265663750000003 1.6265663750000003
9 2 -2.000000 4.879699125 1.6265663750000003 1.6265663750000003
10 2 -2.000000 4.879699125 4.879699125 1.6265663750000003
11 2 -2.000000 4.879699125 4.879699125 4.879699125
12 2 -2.000000 4.879699125 1.6265663750000003 4.879699125
