 # Ce4 O8
  
          12  atoms
           2  atom types
 
0.0 6.856182300000001 xlo xhi
0.0 6.856182300000001 ylo yhi
0.0 6.856182300000001 zlo zhi
 
Masses
 
            1   140.11600000            # Ce
            2   15.99900000             # O
 
Atoms
 
1 1 4.000000 0.0 0.0 0.0
2 1 4.000000 0.0 3.4280911500000006 3.4280911500000006
3 1 4.000000 3.4280911500000006 0.0 3.4280911500000006
4 1 4.000000 3.4280911500000006 3.4280911500000006 0.0
5 2 -2.000000 1.7140455750000003 1.7140455750000003 5.142136725
6 2 -2.000000 1.7140455750000003 5.142136725 5.142136725
7 2 -2.000000 1.7140455750000003 5.142136725 1.7140455750000003
8 2 -2.000000 1.7140455750000003 1.7140455750000003 1.7140455750000003
9 2 -2.000000 5.142136725 1.7140455750000003 1.7140455750000003
10 2 -2.000000 5.142136725 5.142136725 1.7140455750000003
11 2 -2.000000 5.142136725 5.142136725 5.142136725
12 2 -2.000000 5.142136725 1.7140455750000003 5.142136725
