 # Ce4 O8
  
          12  atoms
           2  atom types
 
0.0 5.19954495 xlo xhi
0.0 5.19954495 ylo yhi
0.0 5.19954495 zlo zhi
 
Masses
 
            1   140.11600000            # Ce
            2   15.99900000             # O
 
Atoms
 
1 1 4.000000 0.0 0.0 0.0
2 1 4.000000 0.0 2.599772475 2.599772475
3 1 4.000000 2.599772475 0.0 2.599772475
4 1 4.000000 2.599772475 2.599772475 0.0
5 2 -2.000000 1.2998862375 1.2998862375 3.8996587124999995
6 2 -2.000000 1.2998862375 3.8996587124999995 3.8996587124999995
7 2 -2.000000 1.2998862375 3.8996587124999995 1.2998862375
8 2 -2.000000 1.2998862375 1.2998862375 1.2998862375
9 2 -2.000000 3.8996587124999995 1.2998862375 1.2998862375
10 2 -2.000000 3.8996587124999995 3.8996587124999995 1.2998862375
11 2 -2.000000 3.8996587124999995 3.8996587124999995 3.8996587124999995
12 2 -2.000000 3.8996587124999995 1.2998862375 3.8996587124999995
