 # Ce4 O8
  
          12  atoms
           2  atom types
 
0.0 6.697626250000001 xlo xhi
0.0 6.697626250000001 ylo yhi
0.0 6.697626250000001 zlo zhi
 
Masses
 
            1   140.11600000            # Ce
            2   15.99900000             # O
 
Atoms
 
1 1 4.000000 0.0 0.0 0.0
2 1 4.000000 0.0 3.3488131250000004 3.3488131250000004
3 1 4.000000 3.3488131250000004 0.0 3.3488131250000004
4 1 4.000000 3.3488131250000004 3.3488131250000004 0.0
5 2 -2.000000 1.6744065625000002 1.6744065625000002 5.0232196875
6 2 -2.000000 1.6744065625000002 5.0232196875 5.0232196875
7 2 -2.000000 1.6744065625000002 5.0232196875 1.6744065625000002
8 2 -2.000000 1.6744065625000002 1.6744065625000002 1.6744065625000002
9 2 -2.000000 5.0232196875 1.6744065625000002 1.6744065625000002
10 2 -2.000000 5.0232196875 5.0232196875 1.6744065625000002
11 2 -2.000000 5.0232196875 5.0232196875 5.0232196875
12 2 -2.000000 5.0232196875 1.6744065625000002 5.0232196875
