 # Ce4 O8
  
          12  atoms
           2  atom types
 
0.0 5.549461750000001 xlo xhi
0.0 5.549461750000001 ylo yhi
0.0 5.549461750000001 zlo zhi
 
Masses
 
            1   140.11600000            # Ce
            2   15.99900000             # O
 
Atoms
 
1 1 4.000000 0.0 0.0 0.0
2 1 4.000000 0.0 2.7747308750000004 2.7747308750000004
3 1 4.000000 2.7747308750000004 0.0 2.7747308750000004
4 1 4.000000 2.7747308750000004 2.7747308750000004 0.0
5 2 -2.000000 1.3873654375000002 1.3873654375000002 4.1620963125
6 2 -2.000000 1.3873654375000002 4.1620963125 4.1620963125
7 2 -2.000000 1.3873654375000002 4.1620963125 1.3873654375000002
8 2 -2.000000 1.3873654375000002 1.3873654375000002 1.3873654375000002
9 2 -2.000000 4.1620963125 1.3873654375000002 1.3873654375000002
10 2 -2.000000 4.1620963125 4.1620963125 1.3873654375000002
11 2 -2.000000 4.1620963125 4.1620963125 4.1620963125
12 2 -2.000000 4.1620963125 1.3873654375000002 4.1620963125
