 # Ce4 O8
  
          12  atoms
           2  atom types
 
0.0 6.2492953500000015 xlo xhi
0.0 6.2492953500000015 ylo yhi
0.0 6.2492953500000015 zlo zhi
 
Masses
 
            1   140.11600000            # Ce
            2   15.99900000             # O
 
Atoms
 
1 1 4.000000 0.0 0.0 0.0
2 1 4.000000 0.0 3.1246476750000007 3.1246476750000007
3 1 4.000000 3.1246476750000007 0.0 3.1246476750000007
4 1 4.000000 3.1246476750000007 3.1246476750000007 0.0
5 2 -2.000000 1.5623238375000004 1.5623238375000004 4.6869715125
6 2 -2.000000 1.5623238375000004 4.6869715125 4.6869715125
7 2 -2.000000 1.5623238375000004 4.6869715125 1.5623238375000004
8 2 -2.000000 1.5623238375000004 1.5623238375000004 1.5623238375000004
9 2 -2.000000 4.6869715125 1.5623238375000004 1.5623238375000004
10 2 -2.000000 4.6869715125 4.6869715125 1.5623238375000004
11 2 -2.000000 4.6869715125 4.6869715125 4.6869715125
12 2 -2.000000 4.6869715125 1.5623238375000004 4.6869715125
