 # Ce4 O8
  
          12  atoms
           2  atom types
 
0.0 5.724420150000001 xlo xhi
0.0 5.724420150000001 ylo yhi
0.0 5.724420150000001 zlo zhi
 
Masses
 
            1   140.11600000            # Ce
            2   15.99900000             # O
 
Atoms
 
1 1 4.000000 0.0 0.0 0.0
2 1 4.000000 0.0 2.8622100750000006 2.8622100750000006
3 1 4.000000 2.8622100750000006 0.0 2.8622100750000006
4 1 4.000000 2.8622100750000006 2.8622100750000006 0.0
5 2 -2.000000 1.4311050375000003 1.4311050375000003 4.2933151125
6 2 -2.000000 1.4311050375000003 4.2933151125 4.2933151125
7 2 -2.000000 1.4311050375000003 4.2933151125 1.4311050375000003
8 2 -2.000000 1.4311050375000003 1.4311050375000003 1.4311050375000003
9 2 -2.000000 4.2933151125 1.4311050375000003 1.4311050375000003
10 2 -2.000000 4.2933151125 4.2933151125 1.4311050375000003
11 2 -2.000000 4.2933151125 4.2933151125 4.2933151125
12 2 -2.000000 4.2933151125 1.4311050375000003 4.2933151125
