 # Ce4 O8
  
          12  atoms
           2  atom types
 
0.0 5.3143614 xlo xhi
0.0 5.3143614 ylo yhi
0.0 5.3143614 zlo zhi
 
Masses
 
            1   140.11600000            # Ce
            2   15.99900000             # O
 
Atoms
 
1 1 4.000000 0.0 0.0 0.0
2 1 4.000000 0.0 2.6571807 2.6571807
3 1 4.000000 2.6571807 0.0 2.6571807
4 1 4.000000 2.6571807 2.6571807 0.0
5 2 -2.000000 1.32859035 1.32859035 3.9857710499999994
6 2 -2.000000 1.32859035 3.9857710499999994 3.9857710499999994
7 2 -2.000000 1.32859035 3.9857710499999994 1.32859035
8 2 -2.000000 1.32859035 1.32859035 1.32859035
9 2 -2.000000 3.9857710499999994 1.32859035 1.32859035
10 2 -2.000000 3.9857710499999994 3.9857710499999994 1.32859035
11 2 -2.000000 3.9857710499999994 3.9857710499999994 3.9857710499999994
12 2 -2.000000 3.9857710499999994 1.32859035 3.9857710499999994
