 # Ce4 O8
  
          12  atoms
           2  atom types
 
0.0 5.73535505 xlo xhi
0.0 5.73535505 ylo yhi
0.0 5.73535505 zlo zhi
 
Masses
 
            1   140.11600000            # Ce
            2   15.99900000             # O
 
Atoms
 
1 1 4.000000 0.0 0.0 0.0
2 1 4.000000 0.0 2.867677525 2.867677525
3 1 4.000000 2.867677525 0.0 2.867677525
4 1 4.000000 2.867677525 2.867677525 0.0
5 2 -2.000000 1.4338387625 1.4338387625 4.301516287499999
6 2 -2.000000 1.4338387625 4.301516287499999 4.301516287499999
7 2 -2.000000 1.4338387625 4.301516287499999 1.4338387625
8 2 -2.000000 1.4338387625 1.4338387625 1.4338387625
9 2 -2.000000 4.301516287499999 1.4338387625 1.4338387625
10 2 -2.000000 4.301516287499999 4.301516287499999 1.4338387625
11 2 -2.000000 4.301516287499999 4.301516287499999 4.301516287499999
12 2 -2.000000 4.301516287499999 1.4338387625 4.301516287499999
