 # Ce4 O8
  
          12  atoms
           2  atom types
 
0.0 6.511732950000002 xlo xhi
0.0 6.511732950000002 ylo yhi
0.0 6.511732950000002 zlo zhi
 
Masses
 
            1   140.11600000            # Ce
            2   15.99900000             # O
 
Atoms
 
1 1 4.000000 0.0 0.0 0.0
2 1 4.000000 0.0 3.255866475000001 3.255866475000001
3 1 4.000000 3.255866475000001 0.0 3.255866475000001
4 1 4.000000 3.255866475000001 3.255866475000001 0.0
5 2 -2.000000 1.6279332375000004 1.6279332375000004 4.883799712500001
6 2 -2.000000 1.6279332375000004 4.883799712500001 4.883799712500001
7 2 -2.000000 1.6279332375000004 4.883799712500001 1.6279332375000004
8 2 -2.000000 1.6279332375000004 1.6279332375000004 1.6279332375000004
9 2 -2.000000 4.883799712500001 1.6279332375000004 1.6279332375000004
10 2 -2.000000 4.883799712500001 4.883799712500001 1.6279332375000004
11 2 -2.000000 4.883799712500001 4.883799712500001 4.883799712500001
12 2 -2.000000 4.883799712500001 1.6279332375000004 4.883799712500001
