 # Ce4 O8
  
          12  atoms
           2  atom types
 
0.0 6.719496050000001 xlo xhi
0.0 6.719496050000001 ylo yhi
0.0 6.719496050000001 zlo zhi
 
Masses
 
            1   140.11600000            # Ce
            2   15.99900000             # O
 
Atoms
 
1 1 4.000000 0.0 0.0 0.0
2 1 4.000000 0.0 3.3597480250000005 3.3597480250000005
3 1 4.000000 3.3597480250000005 0.0 3.3597480250000005
4 1 4.000000 3.3597480250000005 3.3597480250000005 0.0
5 2 -2.000000 1.6798740125000002 1.6798740125000002 5.0396220375
6 2 -2.000000 1.6798740125000002 5.0396220375 5.0396220375
7 2 -2.000000 1.6798740125000002 5.0396220375 1.6798740125000002
8 2 -2.000000 1.6798740125000002 1.6798740125000002 1.6798740125000002
9 2 -2.000000 5.0396220375 1.6798740125000002 1.6798740125000002
10 2 -2.000000 5.0396220375 5.0396220375 1.6798740125000002
11 2 -2.000000 5.0396220375 5.0396220375 5.0396220375
12 2 -2.000000 5.0396220375 1.6798740125000002 5.0396220375
