 # Ce4 O8
  
          12  atoms
           2  atom types
 
0.0 5.664278200000001 xlo xhi
0.0 5.664278200000001 ylo yhi
0.0 5.664278200000001 zlo zhi
 
Masses
 
            1   140.11600000            # Ce
            2   15.99900000             # O
 
Atoms
 
1 1 4.000000 0.0 0.0 0.0
2 1 4.000000 0.0 2.8321391000000005 2.8321391000000005
3 1 4.000000 2.8321391000000005 0.0 2.8321391000000005
4 1 4.000000 2.8321391000000005 2.8321391000000005 0.0
5 2 -2.000000 1.4160695500000002 1.4160695500000002 4.24820865
6 2 -2.000000 1.4160695500000002 4.24820865 4.24820865
7 2 -2.000000 1.4160695500000002 4.24820865 1.4160695500000002
8 2 -2.000000 1.4160695500000002 1.4160695500000002 1.4160695500000002
9 2 -2.000000 4.24820865 1.4160695500000002 1.4160695500000002
10 2 -2.000000 4.24820865 4.24820865 1.4160695500000002
11 2 -2.000000 4.24820865 4.24820865 4.24820865
12 2 -2.000000 4.24820865 1.4160695500000002 4.24820865
