 # Ce4 O8
  
          12  atoms
           2  atom types
 
0.0 5.91031345 xlo xhi
0.0 5.91031345 ylo yhi
0.0 5.91031345 zlo zhi
 
Masses
 
            1   140.11600000            # Ce
            2   15.99900000             # O
 
Atoms
 
1 1 4.000000 0.0 0.0 0.0
2 1 4.000000 0.0 2.955156725 2.955156725
3 1 4.000000 2.955156725 0.0 2.955156725
4 1 4.000000 2.955156725 2.955156725 0.0
5 2 -2.000000 1.4775783625 1.4775783625 4.432735087499999
6 2 -2.000000 1.4775783625 4.432735087499999 4.432735087499999
7 2 -2.000000 1.4775783625 4.432735087499999 1.4775783625
8 2 -2.000000 1.4775783625 1.4775783625 1.4775783625
9 2 -2.000000 4.432735087499999 1.4775783625 1.4775783625
10 2 -2.000000 4.432735087499999 4.432735087499999 1.4775783625
11 2 -2.000000 4.432735087499999 4.432735087499999 4.432735087499999
12 2 -2.000000 4.432735087499999 1.4775783625 4.432735087499999
