 # Ce4 O8
  
          12  atoms
           2  atom types
 
0.0 5.527591950000001 xlo xhi
0.0 5.527591950000001 ylo yhi
0.0 5.527591950000001 zlo zhi
 
Masses
 
            1   140.11600000            # Ce
            2   15.99900000             # O
 
Atoms
 
1 1 4.000000 0.0 0.0 0.0
2 1 4.000000 0.0 2.7637959750000003 2.7637959750000003
3 1 4.000000 2.7637959750000003 0.0 2.7637959750000003
4 1 4.000000 2.7637959750000003 2.7637959750000003 0.0
5 2 -2.000000 1.3818979875000001 1.3818979875000001 4.1456939625
6 2 -2.000000 1.3818979875000001 4.1456939625 4.1456939625
7 2 -2.000000 1.3818979875000001 4.1456939625 1.3818979875000001
8 2 -2.000000 1.3818979875000001 1.3818979875000001 1.3818979875000001
9 2 -2.000000 4.1456939625 1.3818979875000001 1.3818979875000001
10 2 -2.000000 4.1456939625 4.1456939625 1.3818979875000001
11 2 -2.000000 4.1456939625 4.1456939625 4.1456939625
12 2 -2.000000 4.1456939625 1.3818979875000001 4.1456939625
