 # Ce4 O8
  
          12  atoms
           2  atom types
 
0.0 5.33076375 xlo xhi
0.0 5.33076375 ylo yhi
0.0 5.33076375 zlo zhi
 
Masses
 
            1   140.11600000            # Ce
            2   15.99900000             # O
 
Atoms
 
1 1 4.000000 0.0 0.0 0.0
2 1 4.000000 0.0 2.665381875 2.665381875
3 1 4.000000 2.665381875 0.0 2.665381875
4 1 4.000000 2.665381875 2.665381875 0.0
5 2 -2.000000 1.3326909375 1.3326909375 3.9980728124999994
6 2 -2.000000 1.3326909375 3.9980728124999994 3.9980728124999994
7 2 -2.000000 1.3326909375 3.9980728124999994 1.3326909375
8 2 -2.000000 1.3326909375 1.3326909375 1.3326909375
9 2 -2.000000 3.9980728124999994 1.3326909375 1.3326909375
10 2 -2.000000 3.9980728124999994 3.9980728124999994 1.3326909375
11 2 -2.000000 3.9980728124999994 3.9980728124999994 3.9980728124999994
12 2 -2.000000 3.9980728124999994 1.3326909375 3.9980728124999994
