 # Ce4 O8
  
          12  atoms
           2  atom types
 
0.0 6.6538866500000005 xlo xhi
0.0 6.6538866500000005 ylo yhi
0.0 6.6538866500000005 zlo zhi
 
Masses
 
            1   140.11600000            # Ce
            2   15.99900000             # O
 
Atoms
 
1 1 4.000000 0.0 0.0 0.0
2 1 4.000000 0.0 3.3269433250000002 3.3269433250000002
3 1 4.000000 3.3269433250000002 0.0 3.3269433250000002
4 1 4.000000 3.3269433250000002 3.3269433250000002 0.0
5 2 -2.000000 1.6634716625000001 1.6634716625000001 4.9904149874999995
6 2 -2.000000 1.6634716625000001 4.9904149874999995 4.9904149874999995
7 2 -2.000000 1.6634716625000001 4.9904149874999995 1.6634716625000001
8 2 -2.000000 1.6634716625000001 1.6634716625000001 1.6634716625000001
9 2 -2.000000 4.9904149874999995 1.6634716625000001 1.6634716625000001
10 2 -2.000000 4.9904149874999995 4.9904149874999995 1.6634716625000001
11 2 -2.000000 4.9904149874999995 4.9904149874999995 4.9904149874999995
12 2 -2.000000 4.9904149874999995 1.6634716625000001 4.9904149874999995
