 # Ce4 O8
  
          12  atoms
           2  atom types
 
0.0 5.75722485 xlo xhi
0.0 5.75722485 ylo yhi
0.0 5.75722485 zlo zhi
 
Masses
 
            1   140.11600000            # Ce
            2   15.99900000             # O
 
Atoms
 
1 1 4.000000 0.0 0.0 0.0
2 1 4.000000 0.0 2.878612425 2.878612425
3 1 4.000000 2.878612425 0.0 2.878612425
4 1 4.000000 2.878612425 2.878612425 0.0
5 2 -2.000000 1.4393062125 1.4393062125 4.317918637499999
6 2 -2.000000 1.4393062125 4.317918637499999 4.317918637499999
7 2 -2.000000 1.4393062125 4.317918637499999 1.4393062125
8 2 -2.000000 1.4393062125 1.4393062125 1.4393062125
9 2 -2.000000 4.317918637499999 1.4393062125 1.4393062125
10 2 -2.000000 4.317918637499999 4.317918637499999 1.4393062125
11 2 -2.000000 4.317918637499999 4.317918637499999 4.317918637499999
12 2 -2.000000 4.317918637499999 1.4393062125 4.317918637499999
