 # Ce4 O8
  
          12  atoms
           2  atom types
 
0.0 5.16674025 xlo xhi
0.0 5.16674025 ylo yhi
0.0 5.16674025 zlo zhi
 
Masses
 
            1   140.11600000            # Ce
            2   15.99900000             # O
 
Atoms
 
1 1 4.000000 0.0 0.0 0.0
2 1 4.000000 0.0 2.583370125 2.583370125
3 1 4.000000 2.583370125 0.0 2.583370125
4 1 4.000000 2.583370125 2.583370125 0.0
5 2 -2.000000 1.2916850625 1.2916850625 3.875055187499999
6 2 -2.000000 1.2916850625 3.875055187499999 3.875055187499999
7 2 -2.000000 1.2916850625 3.875055187499999 1.2916850625
8 2 -2.000000 1.2916850625 1.2916850625 1.2916850625
9 2 -2.000000 3.875055187499999 1.2916850625 1.2916850625
10 2 -2.000000 3.875055187499999 3.875055187499999 1.2916850625
11 2 -2.000000 3.875055187499999 3.875055187499999 3.875055187499999
12 2 -2.000000 3.875055187499999 1.2916850625 3.875055187499999
