 # Ce4 O8
  
          12  atoms
           2  atom types
 
0.0 5.7080178 xlo xhi
0.0 5.7080178 ylo yhi
0.0 5.7080178 zlo zhi
 
Masses
 
            1   140.11600000            # Ce
            2   15.99900000             # O
 
Atoms
 
1 1 4.000000 0.0 0.0 0.0
2 1 4.000000 0.0 2.8540089 2.8540089
3 1 4.000000 2.8540089 0.0 2.8540089
4 1 4.000000 2.8540089 2.8540089 0.0
5 2 -2.000000 1.42700445 1.42700445 4.281013349999999
6 2 -2.000000 1.42700445 4.281013349999999 4.281013349999999
7 2 -2.000000 1.42700445 4.281013349999999 1.42700445
8 2 -2.000000 1.42700445 1.42700445 1.42700445
9 2 -2.000000 4.281013349999999 1.42700445 1.42700445
10 2 -2.000000 4.281013349999999 4.281013349999999 1.42700445
11 2 -2.000000 4.281013349999999 4.281013349999999 4.281013349999999
12 2 -2.000000 4.281013349999999 1.42700445 4.281013349999999
