 # Ce4 O8
  
          12  atoms
           2  atom types
 
0.0 5.5002547 xlo xhi
0.0 5.5002547 ylo yhi
0.0 5.5002547 zlo zhi
 
Masses
 
            1   140.11600000            # Ce
            2   15.99900000             # O
 
Atoms
 
1 1 4.000000 0.0 0.0 0.0
2 1 4.000000 0.0 2.75012735 2.75012735
3 1 4.000000 2.75012735 0.0 2.75012735
4 1 4.000000 2.75012735 2.75012735 0.0
5 2 -2.000000 1.375063675 1.375063675 4.1251910249999995
6 2 -2.000000 1.375063675 4.1251910249999995 4.1251910249999995
7 2 -2.000000 1.375063675 4.1251910249999995 1.375063675
8 2 -2.000000 1.375063675 1.375063675 1.375063675
9 2 -2.000000 4.1251910249999995 1.375063675 1.375063675
10 2 -2.000000 4.1251910249999995 4.1251910249999995 1.375063675
11 2 -2.000000 4.1251910249999995 4.1251910249999995 4.1251910249999995
12 2 -2.000000 4.1251910249999995 1.375063675 4.1251910249999995
