 # Ce4 O8
  
          12  atoms
           2  atom types
 
0.0 5.751757400000001 xlo xhi
0.0 5.751757400000001 ylo yhi
0.0 5.751757400000001 zlo zhi
 
Masses
 
            1   140.11600000            # Ce
            2   15.99900000             # O
 
Atoms
 
1 1 4.000000 0.0 0.0 0.0
2 1 4.000000 0.0 2.8758787000000003 2.8758787000000003
3 1 4.000000 2.8758787000000003 0.0 2.8758787000000003
4 1 4.000000 2.8758787000000003 2.8758787000000003 0.0
5 2 -2.000000 1.4379393500000002 1.4379393500000002 4.31381805
6 2 -2.000000 1.4379393500000002 4.31381805 4.31381805
7 2 -2.000000 1.4379393500000002 4.31381805 1.4379393500000002
8 2 -2.000000 1.4379393500000002 1.4379393500000002 1.4379393500000002
9 2 -2.000000 4.31381805 1.4379393500000002 1.4379393500000002
10 2 -2.000000 4.31381805 4.31381805 1.4379393500000002
11 2 -2.000000 4.31381805 4.31381805 4.31381805
12 2 -2.000000 4.31381805 1.4379393500000002 4.31381805
