 # Ce4 O8
  
          12  atoms
           2  atom types
 
0.0 5.5603966499999995 xlo xhi
0.0 5.5603966499999995 ylo yhi
0.0 5.5603966499999995 zlo zhi
 
Masses
 
            1   140.11600000            # Ce
            2   15.99900000             # O
 
Atoms
 
1 1 4.000000 0.0 0.0 0.0
2 1 4.000000 0.0 2.7801983249999997 2.7801983249999997
3 1 4.000000 2.7801983249999997 0.0 2.7801983249999997
4 1 4.000000 2.7801983249999997 2.7801983249999997 0.0
5 2 -2.000000 1.3900991624999999 1.3900991624999999 4.170297487499999
6 2 -2.000000 1.3900991624999999 4.170297487499999 4.170297487499999
7 2 -2.000000 1.3900991624999999 4.170297487499999 1.3900991624999999
8 2 -2.000000 1.3900991624999999 1.3900991624999999 1.3900991624999999
9 2 -2.000000 4.170297487499999 1.3900991624999999 1.3900991624999999
10 2 -2.000000 4.170297487499999 4.170297487499999 1.3900991624999999
11 2 -2.000000 4.170297487499999 4.170297487499999 4.170297487499999
12 2 -2.000000 4.170297487499999 1.3900991624999999 4.170297487499999
