 # Ce4 O8
  
          12  atoms
           2  atom types
 
0.0 6.23836045 xlo xhi
0.0 6.23836045 ylo yhi
0.0 6.23836045 zlo zhi
 
Masses
 
            1   140.11600000            # Ce
            2   15.99900000             # O
 
Atoms
 
1 1 4.000000 0.0 0.0 0.0
2 1 4.000000 0.0 3.119180225 3.119180225
3 1 4.000000 3.119180225 0.0 3.119180225
4 1 4.000000 3.119180225 3.119180225 0.0
5 2 -2.000000 1.5595901125 1.5595901125 4.6787703375
6 2 -2.000000 1.5595901125 4.6787703375 4.6787703375
7 2 -2.000000 1.5595901125 4.6787703375 1.5595901125
8 2 -2.000000 1.5595901125 1.5595901125 1.5595901125
9 2 -2.000000 4.6787703375 1.5595901125 1.5595901125
10 2 -2.000000 4.6787703375 4.6787703375 1.5595901125
11 2 -2.000000 4.6787703375 4.6787703375 4.6787703375
12 2 -2.000000 4.6787703375 1.5595901125 4.6787703375
