 # "Ce32 O64"
  
          96  atoms
           2  atom types
 
0.0 17.167793000000007 xlo xhi
0.0 17.167793000000007 ylo yhi
0.0 17.167793000000007 zlo zhi
 
Masses
 
            1   140.11600000            # Ce
            2   15.99900000             # O
 
Atoms
 
1 1 4.0 0.0 0.0 0.0
2 1 4.0 0.0 4.291948250000002 4.291948250000002
3 1 4.0 4.291948250000002 0.0 4.291948250000002
4 1 4.0 4.291948250000002 4.291948250000002 0.0
5 2 -2.0 2.145974125000001 2.145974125000001 6.437922375000001
6 2 -2.0 2.145974125000001 6.437922375000001 6.437922375000001
7 2 -2.0 2.145974125000001 6.437922375000001 2.145974125000001
8 2 -2.0 2.145974125000001 2.145974125000001 2.145974125000001
9 2 -2.0 6.437922375000001 2.145974125000001 2.145974125000001
10 2 -2.0 6.437922375000001 6.437922375000001 2.145974125000001
11 2 -2.0 6.437922375000001 6.437922375000001 6.437922375000001
12 2 -2.0 6.437922375000001 2.145974125000001 6.437922375000001
13 1 4.0 0.0 0.0 8.583896500000003
14 1 4.0 0.0 4.291948250000002 12.875844750000002
15 1 4.0 4.291948250000002 17.167793000000007 12.875844750000002
16 1 4.0 4.291948250000002 4.291948250000002 8.583896500000003
17 2 -2.0 2.145974125000001 2.145974125000001 15.021818875000006
18 2 -2.0 2.145974125000001 6.437922375000001 15.021818875000006
19 2 -2.0 2.145974125000001 6.437922375000001 10.729870625000004
20 2 -2.0 2.145974125000001 2.145974125000001 10.729870625000004
21 2 -2.0 6.437922375000001 2.145974125000001 10.729870625000004
22 2 -2.0 6.437922375000001 6.437922375000001 10.729870625000004
23 2 -2.0 6.437922375000001 6.437922375000001 15.021818875000006
24 2 -2.0 6.437922375000001 2.145974125000001 15.021818875000006
25 1 4.0 0.0 8.583896500000003 0.0
26 1 4.0 0.0 12.875844750000002 4.291948250000002
27 1 4.0 4.291948250000002 8.583896500000003 4.291948250000002
28 1 4.0 4.291948250000002 12.875844750000002 0.0
29 2 -2.0 2.145974125000001 10.729870625000004 6.437922375000001
30 2 -2.0 2.145974125000001 15.021818875000006 6.437922375000001
31 2 -2.0 2.145974125000001 15.021818875000006 2.145974125000001
32 2 -2.0 2.145974125000001 10.729870625000004 2.145974125000001
33 2 -2.0 6.437922375000001 10.729870625000004 2.145974125000001
34 2 -2.0 6.437922375000001 15.021818875000006 2.145974125000001
35 2 -2.0 6.437922375000001 15.021818875000006 6.437922375000001
36 2 -2.0 6.437922375000001 10.729870625000004 6.437922375000001
37 1 4.0 0.0 8.583896500000003 8.583896500000003
38 1 4.0 0.0 12.875844750000002 12.875844750000002
39 1 4.0 4.291948250000002 8.583896500000003 12.875844750000002
40 1 4.0 4.291948250000002 12.875844750000002 8.583896500000003
41 2 -2.0 2.145974125000001 10.729870625000004 15.021818875000006
42 2 -2.0 2.145974125000001 15.021818875000006 15.021818875000006
43 2 -2.0 2.145974125000001 15.021818875000006 10.729870625000004
44 2 -2.0 2.145974125000001 10.729870625000004 10.729870625000004
45 2 -2.0 6.437922375000001 10.729870625000004 10.729870625000004
46 2 -2.0 6.437922375000001 15.021818875000006 10.729870625000004
47 2 -2.0 6.437922375000001 15.021818875000006 15.021818875000006
48 2 -2.0 6.437922375000001 10.729870625000004 15.021818875000006
49 1 4.0 8.583896500000003 0.0 0.0
50 1 4.0 8.583896500000003 4.291948250000002 4.291948250000002
51 1 4.0 12.875844750000002 0.0 4.291948250000002
52 1 4.0 12.875844750000002 4.291948250000002 0.0
53 2 -2.0 10.729870625000004 2.145974125000001 6.437922375000001
54 2 -2.0 10.729870625000004 6.437922375000001 6.437922375000001
55 2 -2.0 10.729870625000004 6.437922375000001 2.145974125000001
56 2 -2.0 10.729870625000004 2.145974125000001 2.145974125000001
57 2 -2.0 15.021818875000006 2.145974125000001 2.145974125000001
58 2 -2.0 15.021818875000006 6.437922375000001 2.145974125000001
59 2 -2.0 15.021818875000006 6.437922375000001 6.437922375000001
60 2 -2.0 15.021818875000006 2.145974125000001 6.437922375000001
61 1 4.0 8.583896500000003 0.0 8.583896500000003
62 1 4.0 8.583896500000003 4.291948250000002 12.875844750000002
63 1 4.0 12.875844750000002 17.167793000000007 12.875844750000002
64 1 4.0 12.875844750000002 4.291948250000002 8.583896500000003
65 2 -2.0 10.729870625000004 2.145974125000001 15.021818875000006
66 2 -2.0 10.729870625000004 6.437922375000001 15.021818875000006
67 2 -2.0 10.729870625000004 6.437922375000001 10.729870625000004
68 2 -2.0 10.729870625000004 2.145974125000001 10.729870625000004
69 2 -2.0 15.021818875000006 2.145974125000001 10.729870625000004
70 2 -2.0 15.021818875000006 6.437922375000001 10.729870625000004
71 2 -2.0 15.021818875000006 6.437922375000001 15.021818875000006
72 2 -2.0 15.021818875000006 2.145974125000001 15.021818875000006
73 1 4.0 8.583896500000003 8.583896500000003 0.0
74 1 4.0 8.583896500000003 12.875844750000002 4.291948250000002
75 1 4.0 12.875844750000002 8.583896500000003 4.291948250000002
76 1 4.0 12.875844750000002 12.875844750000002 0.0
77 2 -2.0 10.729870625000004 10.729870625000004 6.437922375000001
78 2 -2.0 10.729870625000004 15.021818875000006 6.437922375000001
79 2 -2.0 10.729870625000004 15.021818875000006 2.145974125000001
80 2 -2.0 10.729870625000004 10.729870625000004 2.145974125000001
81 2 -2.0 15.021818875000006 10.729870625000004 2.145974125000001
82 2 -2.0 15.021818875000006 15.021818875000006 2.145974125000001
83 2 -2.0 15.021818875000006 15.021818875000006 6.437922375000001
84 2 -2.0 15.021818875000006 10.729870625000004 6.437922375000001
85 1 4.0 8.583896500000003 8.583896500000003 8.583896500000003
86 1 4.0 8.583896500000003 12.875844750000002 12.875844750000002
87 1 4.0 12.875844750000002 8.583896500000003 12.875844750000002
88 1 4.0 12.875844750000002 12.875844750000002 8.583896500000003
89 2 -2.0 10.729870625000004 10.729870625000004 15.021818875000006
90 2 -2.0 10.729870625000004 15.021818875000006 15.021818875000006
91 2 -2.0 10.729870625000004 15.021818875000006 10.729870625000004
92 2 -2.0 10.729870625000004 10.729870625000004 10.729870625000004
93 2 -2.0 15.021818875000006 10.729870625000004 10.729870625000004
94 2 -2.0 15.021818875000006 15.021818875000006 10.729870625000004
95 2 -2.0 15.021818875000006 15.021818875000006 15.021818875000006
96 2 -2.0 15.021818875000006 10.729870625000004 15.021818875000006
