 # "Ce32 O64"
  
          96  atoms
           2  atom types
 
0.0 14.543417000000003 xlo xhi
0.0 14.543417000000003 ylo yhi
0.0 14.543417000000003 zlo zhi
 
Masses
 
            1   140.11600000            # Ce
            2   15.99900000             # O
 
Atoms
 
1 1 4.0 0.0 0.0 0.0
2 1 4.0 0.0 3.635854250000001 3.635854250000001
3 1 4.0 3.635854250000001 0.0 3.635854250000001
4 1 4.0 3.635854250000001 3.635854250000001 0.0
5 2 -2.0 1.8179271250000004 1.8179271250000004 5.453781375000001
6 2 -2.0 1.8179271250000004 5.453781375000001 5.453781375000001
7 2 -2.0 1.8179271250000004 5.453781375000001 1.8179271250000004
8 2 -2.0 1.8179271250000004 1.8179271250000004 1.8179271250000004
9 2 -2.0 5.453781375000001 1.8179271250000004 1.8179271250000004
10 2 -2.0 5.453781375000001 5.453781375000001 1.8179271250000004
11 2 -2.0 5.453781375000001 5.453781375000001 5.453781375000001
12 2 -2.0 5.453781375000001 1.8179271250000004 5.453781375000001
13 1 4.0 0.0 0.0 7.271708500000002
14 1 4.0 0.0 3.635854250000001 10.907562750000002
15 1 4.0 3.635854250000001 14.543417000000003 10.907562750000002
16 1 4.0 3.635854250000001 3.635854250000001 7.271708500000002
17 2 -2.0 1.8179271250000004 1.8179271250000004 12.725489875000005
18 2 -2.0 1.8179271250000004 5.453781375000001 12.725489875000005
19 2 -2.0 1.8179271250000004 5.453781375000001 9.089635625000001
20 2 -2.0 1.8179271250000004 1.8179271250000004 9.089635625000001
21 2 -2.0 5.453781375000001 1.8179271250000004 9.089635625000001
22 2 -2.0 5.453781375000001 5.453781375000001 9.089635625000001
23 2 -2.0 5.453781375000001 5.453781375000001 12.725489875000005
24 2 -2.0 5.453781375000001 1.8179271250000004 12.725489875000005
25 1 4.0 0.0 7.271708500000002 0.0
26 1 4.0 0.0 10.907562750000002 3.635854250000001
27 1 4.0 3.635854250000001 7.271708500000002 3.635854250000001
28 1 4.0 3.635854250000001 10.907562750000002 0.0
29 2 -2.0 1.8179271250000004 9.089635625000001 5.453781375000001
30 2 -2.0 1.8179271250000004 12.725489875000005 5.453781375000001
31 2 -2.0 1.8179271250000004 12.725489875000005 1.8179271250000004
32 2 -2.0 1.8179271250000004 9.089635625000001 1.8179271250000004
33 2 -2.0 5.453781375000001 9.089635625000001 1.8179271250000004
34 2 -2.0 5.453781375000001 12.725489875000005 1.8179271250000004
35 2 -2.0 5.453781375000001 12.725489875000005 5.453781375000001
36 2 -2.0 5.453781375000001 9.089635625000001 5.453781375000001
37 1 4.0 0.0 7.271708500000002 7.271708500000002
38 1 4.0 0.0 10.907562750000002 10.907562750000002
39 1 4.0 3.635854250000001 7.271708500000002 10.907562750000002
40 1 4.0 3.635854250000001 10.907562750000002 7.271708500000002
41 2 -2.0 1.8179271250000004 9.089635625000001 12.725489875000005
42 2 -2.0 1.8179271250000004 12.725489875000005 12.725489875000005
43 2 -2.0 1.8179271250000004 12.725489875000005 9.089635625000001
44 2 -2.0 1.8179271250000004 9.089635625000001 9.089635625000001
45 2 -2.0 5.453781375000001 9.089635625000001 9.089635625000001
46 2 -2.0 5.453781375000001 12.725489875000005 9.089635625000001
47 2 -2.0 5.453781375000001 12.725489875000005 12.725489875000005
48 2 -2.0 5.453781375000001 9.089635625000001 12.725489875000005
49 1 4.0 7.271708500000002 0.0 0.0
50 1 4.0 7.271708500000002 3.635854250000001 3.635854250000001
51 1 4.0 10.907562750000002 0.0 3.635854250000001
52 1 4.0 10.907562750000002 3.635854250000001 0.0
53 2 -2.0 9.089635625000001 1.8179271250000004 5.453781375000001
54 2 -2.0 9.089635625000001 5.453781375000001 5.453781375000001
55 2 -2.0 9.089635625000001 5.453781375000001 1.8179271250000004
56 2 -2.0 9.089635625000001 1.8179271250000004 1.8179271250000004
57 2 -2.0 12.725489875000005 1.8179271250000004 1.8179271250000004
58 2 -2.0 12.725489875000005 5.453781375000001 1.8179271250000004
59 2 -2.0 12.725489875000005 5.453781375000001 5.453781375000001
60 2 -2.0 12.725489875000005 1.8179271250000004 5.453781375000001
61 1 4.0 7.271708500000002 0.0 7.271708500000002
62 1 4.0 7.271708500000002 3.635854250000001 10.907562750000002
63 1 4.0 10.907562750000002 14.543417000000003 10.907562750000002
64 1 4.0 10.907562750000002 3.635854250000001 7.271708500000002
65 2 -2.0 9.089635625000001 1.8179271250000004 12.725489875000005
66 2 -2.0 9.089635625000001 5.453781375000001 12.725489875000005
67 2 -2.0 9.089635625000001 5.453781375000001 9.089635625000001
68 2 -2.0 9.089635625000001 1.8179271250000004 9.089635625000001
69 2 -2.0 12.725489875000005 1.8179271250000004 9.089635625000001
70 2 -2.0 12.725489875000005 5.453781375000001 9.089635625000001
71 2 -2.0 12.725489875000005 5.453781375000001 12.725489875000005
72 2 -2.0 12.725489875000005 1.8179271250000004 12.725489875000005
73 1 4.0 7.271708500000002 7.271708500000002 0.0
74 1 4.0 7.271708500000002 10.907562750000002 3.635854250000001
75 1 4.0 10.907562750000002 7.271708500000002 3.635854250000001
76 1 4.0 10.907562750000002 10.907562750000002 0.0
77 2 -2.0 9.089635625000001 9.089635625000001 5.453781375000001
78 2 -2.0 9.089635625000001 12.725489875000005 5.453781375000001
79 2 -2.0 9.089635625000001 12.725489875000005 1.8179271250000004
80 2 -2.0 9.089635625000001 9.089635625000001 1.8179271250000004
81 2 -2.0 12.725489875000005 9.089635625000001 1.8179271250000004
82 2 -2.0 12.725489875000005 12.725489875000005 1.8179271250000004
83 2 -2.0 12.725489875000005 12.725489875000005 5.453781375000001
84 2 -2.0 12.725489875000005 9.089635625000001 5.453781375000001
85 1 4.0 7.271708500000002 7.271708500000002 7.271708500000002
86 1 4.0 7.271708500000002 10.907562750000002 10.907562750000002
87 1 4.0 10.907562750000002 7.271708500000002 10.907562750000002
88 1 4.0 10.907562750000002 10.907562750000002 7.271708500000002
89 2 -2.0 9.089635625000001 9.089635625000001 12.725489875000005
90 2 -2.0 9.089635625000001 12.725489875000005 12.725489875000005
91 2 -2.0 9.089635625000001 12.725489875000005 9.089635625000001
92 2 -2.0 9.089635625000001 9.089635625000001 9.089635625000001
93 2 -2.0 12.725489875000005 9.089635625000001 9.089635625000001
94 2 -2.0 12.725489875000005 12.725489875000005 9.089635625000001
95 2 -2.0 12.725489875000005 12.725489875000005 12.725489875000005
96 2 -2.0 12.725489875000005 9.089635625000001 12.725489875000005
