 # "Ce32 O64"
  
          96  atoms
           2  atom types
 
0.0 15.418209000000004 xlo xhi
0.0 15.418209000000004 ylo yhi
0.0 15.418209000000004 zlo zhi
 
Masses
 
            1   140.11600000            # Ce
            2   15.99900000             # O
 
Atoms
 
1 1 4.0 0.0 0.0 0.0
2 1 4.0 0.0 3.854552250000001 3.854552250000001
3 1 4.0 3.854552250000001 0.0 3.854552250000001
4 1 4.0 3.854552250000001 3.854552250000001 0.0
5 2 -2.0 1.9272761250000006 1.9272761250000006 5.781828375000001
6 2 -2.0 1.9272761250000006 5.781828375000001 5.781828375000001
7 2 -2.0 1.9272761250000006 5.781828375000001 1.9272761250000006
8 2 -2.0 1.9272761250000006 1.9272761250000006 1.9272761250000006
9 2 -2.0 5.781828375000001 1.9272761250000006 1.9272761250000006
10 2 -2.0 5.781828375000001 5.781828375000001 1.9272761250000006
11 2 -2.0 5.781828375000001 5.781828375000001 5.781828375000001
12 2 -2.0 5.781828375000001 1.9272761250000006 5.781828375000001
13 1 4.0 0.0 0.0 7.709104500000002
14 1 4.0 0.0 3.854552250000001 11.563656750000002
15 1 4.0 3.854552250000001 15.418209000000004 11.563656750000002
16 1 4.0 3.854552250000001 3.854552250000001 7.709104500000002
17 2 -2.0 1.9272761250000006 1.9272761250000006 13.490932875000004
18 2 -2.0 1.9272761250000006 5.781828375000001 13.490932875000004
19 2 -2.0 1.9272761250000006 5.781828375000001 9.636380625000003
20 2 -2.0 1.9272761250000006 1.9272761250000006 9.636380625000003
21 2 -2.0 5.781828375000001 1.9272761250000006 9.636380625000003
22 2 -2.0 5.781828375000001 5.781828375000001 9.636380625000003
23 2 -2.0 5.781828375000001 5.781828375000001 13.490932875000004
24 2 -2.0 5.781828375000001 1.9272761250000006 13.490932875000004
25 1 4.0 0.0 7.709104500000002 0.0
26 1 4.0 0.0 11.563656750000002 3.854552250000001
27 1 4.0 3.854552250000001 7.709104500000002 3.854552250000001
28 1 4.0 3.854552250000001 11.563656750000002 0.0
29 2 -2.0 1.9272761250000006 9.636380625000003 5.781828375000001
30 2 -2.0 1.9272761250000006 13.490932875000004 5.781828375000001
31 2 -2.0 1.9272761250000006 13.490932875000004 1.9272761250000006
32 2 -2.0 1.9272761250000006 9.636380625000003 1.9272761250000006
33 2 -2.0 5.781828375000001 9.636380625000003 1.9272761250000006
34 2 -2.0 5.781828375000001 13.490932875000004 1.9272761250000006
35 2 -2.0 5.781828375000001 13.490932875000004 5.781828375000001
36 2 -2.0 5.781828375000001 9.636380625000003 5.781828375000001
37 1 4.0 0.0 7.709104500000002 7.709104500000002
38 1 4.0 0.0 11.563656750000002 11.563656750000002
39 1 4.0 3.854552250000001 7.709104500000002 11.563656750000002
40 1 4.0 3.854552250000001 11.563656750000002 7.709104500000002
41 2 -2.0 1.9272761250000006 9.636380625000003 13.490932875000004
42 2 -2.0 1.9272761250000006 13.490932875000004 13.490932875000004
43 2 -2.0 1.9272761250000006 13.490932875000004 9.636380625000003
44 2 -2.0 1.9272761250000006 9.636380625000003 9.636380625000003
45 2 -2.0 5.781828375000001 9.636380625000003 9.636380625000003
46 2 -2.0 5.781828375000001 13.490932875000004 9.636380625000003
47 2 -2.0 5.781828375000001 13.490932875000004 13.490932875000004
48 2 -2.0 5.781828375000001 9.636380625000003 13.490932875000004
49 1 4.0 7.709104500000002 0.0 0.0
50 1 4.0 7.709104500000002 3.854552250000001 3.854552250000001
51 1 4.0 11.563656750000002 0.0 3.854552250000001
52 1 4.0 11.563656750000002 3.854552250000001 0.0
53 2 -2.0 9.636380625000003 1.9272761250000006 5.781828375000001
54 2 -2.0 9.636380625000003 5.781828375000001 5.781828375000001
55 2 -2.0 9.636380625000003 5.781828375000001 1.9272761250000006
56 2 -2.0 9.636380625000003 1.9272761250000006 1.9272761250000006
57 2 -2.0 13.490932875000004 1.9272761250000006 1.9272761250000006
58 2 -2.0 13.490932875000004 5.781828375000001 1.9272761250000006
59 2 -2.0 13.490932875000004 5.781828375000001 5.781828375000001
60 2 -2.0 13.490932875000004 1.9272761250000006 5.781828375000001
61 1 4.0 7.709104500000002 0.0 7.709104500000002
62 1 4.0 7.709104500000002 3.854552250000001 11.563656750000002
63 1 4.0 11.563656750000002 15.418209000000004 11.563656750000002
64 1 4.0 11.563656750000002 3.854552250000001 7.709104500000002
65 2 -2.0 9.636380625000003 1.9272761250000006 13.490932875000004
66 2 -2.0 9.636380625000003 5.781828375000001 13.490932875000004
67 2 -2.0 9.636380625000003 5.781828375000001 9.636380625000003
68 2 -2.0 9.636380625000003 1.9272761250000006 9.636380625000003
69 2 -2.0 13.490932875000004 1.9272761250000006 9.636380625000003
70 2 -2.0 13.490932875000004 5.781828375000001 9.636380625000003
71 2 -2.0 13.490932875000004 5.781828375000001 13.490932875000004
72 2 -2.0 13.490932875000004 1.9272761250000006 13.490932875000004
73 1 4.0 7.709104500000002 7.709104500000002 0.0
74 1 4.0 7.709104500000002 11.563656750000002 3.854552250000001
75 1 4.0 11.563656750000002 7.709104500000002 3.854552250000001
76 1 4.0 11.563656750000002 11.563656750000002 0.0
77 2 -2.0 9.636380625000003 9.636380625000003 5.781828375000001
78 2 -2.0 9.636380625000003 13.490932875000004 5.781828375000001
79 2 -2.0 9.636380625000003 13.490932875000004 1.9272761250000006
80 2 -2.0 9.636380625000003 9.636380625000003 1.9272761250000006
81 2 -2.0 13.490932875000004 9.636380625000003 1.9272761250000006
82 2 -2.0 13.490932875000004 13.490932875000004 1.9272761250000006
83 2 -2.0 13.490932875000004 13.490932875000004 5.781828375000001
84 2 -2.0 13.490932875000004 9.636380625000003 5.781828375000001
85 1 4.0 7.709104500000002 7.709104500000002 7.709104500000002
86 1 4.0 7.709104500000002 11.563656750000002 11.563656750000002
87 1 4.0 11.563656750000002 7.709104500000002 11.563656750000002
88 1 4.0 11.563656750000002 11.563656750000002 7.709104500000002
89 2 -2.0 9.636380625000003 9.636380625000003 13.490932875000004
90 2 -2.0 9.636380625000003 13.490932875000004 13.490932875000004
91 2 -2.0 9.636380625000003 13.490932875000004 9.636380625000003
92 2 -2.0 9.636380625000003 9.636380625000003 9.636380625000003
93 2 -2.0 13.490932875000004 9.636380625000003 9.636380625000003
94 2 -2.0 13.490932875000004 13.490932875000004 9.636380625000003
95 2 -2.0 13.490932875000004 13.490932875000004 13.490932875000004
96 2 -2.0 13.490932875000004 9.636380625000003 13.490932875000004
