 # "Ce32 O64"
  
          96  atoms
           2  atom types
 
0.0 18.042585000000006 xlo xhi
0.0 18.042585000000006 ylo yhi
0.0 18.042585000000006 zlo zhi
 
Masses
 
            1   140.11600000            # Ce
            2   15.99900000             # O
 
Atoms
 
1 1 4.0 0.0 0.0 0.0
2 1 4.0 0.0 4.5106462500000015 4.5106462500000015
3 1 4.0 4.5106462500000015 0.0 4.5106462500000015
4 1 4.0 4.5106462500000015 4.5106462500000015 0.0
5 2 -2.0 2.2553231250000008 2.2553231250000008 6.765969375000002
6 2 -2.0 2.2553231250000008 6.765969375000002 6.765969375000002
7 2 -2.0 2.2553231250000008 6.765969375000002 2.2553231250000008
8 2 -2.0 2.2553231250000008 2.2553231250000008 2.2553231250000008
9 2 -2.0 6.765969375000002 2.2553231250000008 2.2553231250000008
10 2 -2.0 6.765969375000002 6.765969375000002 2.2553231250000008
11 2 -2.0 6.765969375000002 6.765969375000002 6.765969375000002
12 2 -2.0 6.765969375000002 2.2553231250000008 6.765969375000002
13 1 4.0 0.0 0.0 9.021292500000003
14 1 4.0 0.0 4.5106462500000015 13.531938750000004
15 1 4.0 4.5106462500000015 18.042585000000006 13.531938750000004
16 1 4.0 4.5106462500000015 4.5106462500000015 9.021292500000003
17 2 -2.0 2.2553231250000008 2.2553231250000008 15.787261875000008
18 2 -2.0 2.2553231250000008 6.765969375000002 15.787261875000008
19 2 -2.0 2.2553231250000008 6.765969375000002 11.276615625000005
20 2 -2.0 2.2553231250000008 2.2553231250000008 11.276615625000005
21 2 -2.0 6.765969375000002 2.2553231250000008 11.276615625000005
22 2 -2.0 6.765969375000002 6.765969375000002 11.276615625000005
23 2 -2.0 6.765969375000002 6.765969375000002 15.787261875000008
24 2 -2.0 6.765969375000002 2.2553231250000008 15.787261875000008
25 1 4.0 0.0 9.021292500000003 0.0
26 1 4.0 0.0 13.531938750000004 4.5106462500000015
27 1 4.0 4.5106462500000015 9.021292500000003 4.5106462500000015
28 1 4.0 4.5106462500000015 13.531938750000004 0.0
29 2 -2.0 2.2553231250000008 11.276615625000005 6.765969375000002
30 2 -2.0 2.2553231250000008 15.787261875000008 6.765969375000002
31 2 -2.0 2.2553231250000008 15.787261875000008 2.2553231250000008
32 2 -2.0 2.2553231250000008 11.276615625000005 2.2553231250000008
33 2 -2.0 6.765969375000002 11.276615625000005 2.2553231250000008
34 2 -2.0 6.765969375000002 15.787261875000008 2.2553231250000008
35 2 -2.0 6.765969375000002 15.787261875000008 6.765969375000002
36 2 -2.0 6.765969375000002 11.276615625000005 6.765969375000002
37 1 4.0 0.0 9.021292500000003 9.021292500000003
38 1 4.0 0.0 13.531938750000004 13.531938750000004
39 1 4.0 4.5106462500000015 9.021292500000003 13.531938750000004
40 1 4.0 4.5106462500000015 13.531938750000004 9.021292500000003
41 2 -2.0 2.2553231250000008 11.276615625000005 15.787261875000008
42 2 -2.0 2.2553231250000008 15.787261875000008 15.787261875000008
43 2 -2.0 2.2553231250000008 15.787261875000008 11.276615625000005
44 2 -2.0 2.2553231250000008 11.276615625000005 11.276615625000005
45 2 -2.0 6.765969375000002 11.276615625000005 11.276615625000005
46 2 -2.0 6.765969375000002 15.787261875000008 11.276615625000005
47 2 -2.0 6.765969375000002 15.787261875000008 15.787261875000008
48 2 -2.0 6.765969375000002 11.276615625000005 15.787261875000008
49 1 4.0 9.021292500000003 0.0 0.0
50 1 4.0 9.021292500000003 4.5106462500000015 4.5106462500000015
51 1 4.0 13.531938750000004 0.0 4.5106462500000015
52 1 4.0 13.531938750000004 4.5106462500000015 0.0
53 2 -2.0 11.276615625000005 2.2553231250000008 6.765969375000002
54 2 -2.0 11.276615625000005 6.765969375000002 6.765969375000002
55 2 -2.0 11.276615625000005 6.765969375000002 2.2553231250000008
56 2 -2.0 11.276615625000005 2.2553231250000008 2.2553231250000008
57 2 -2.0 15.787261875000008 2.2553231250000008 2.2553231250000008
58 2 -2.0 15.787261875000008 6.765969375000002 2.2553231250000008
59 2 -2.0 15.787261875000008 6.765969375000002 6.765969375000002
60 2 -2.0 15.787261875000008 2.2553231250000008 6.765969375000002
61 1 4.0 9.021292500000003 0.0 9.021292500000003
62 1 4.0 9.021292500000003 4.5106462500000015 13.531938750000004
63 1 4.0 13.531938750000004 18.042585000000006 13.531938750000004
64 1 4.0 13.531938750000004 4.5106462500000015 9.021292500000003
65 2 -2.0 11.276615625000005 2.2553231250000008 15.787261875000008
66 2 -2.0 11.276615625000005 6.765969375000002 15.787261875000008
67 2 -2.0 11.276615625000005 6.765969375000002 11.276615625000005
68 2 -2.0 11.276615625000005 2.2553231250000008 11.276615625000005
69 2 -2.0 15.787261875000008 2.2553231250000008 11.276615625000005
70 2 -2.0 15.787261875000008 6.765969375000002 11.276615625000005
71 2 -2.0 15.787261875000008 6.765969375000002 15.787261875000008
72 2 -2.0 15.787261875000008 2.2553231250000008 15.787261875000008
73 1 4.0 9.021292500000003 9.021292500000003 0.0
74 1 4.0 9.021292500000003 13.531938750000004 4.5106462500000015
75 1 4.0 13.531938750000004 9.021292500000003 4.5106462500000015
76 1 4.0 13.531938750000004 13.531938750000004 0.0
77 2 -2.0 11.276615625000005 11.276615625000005 6.765969375000002
78 2 -2.0 11.276615625000005 15.787261875000008 6.765969375000002
79 2 -2.0 11.276615625000005 15.787261875000008 2.2553231250000008
80 2 -2.0 11.276615625000005 11.276615625000005 2.2553231250000008
81 2 -2.0 15.787261875000008 11.276615625000005 2.2553231250000008
82 2 -2.0 15.787261875000008 15.787261875000008 2.2553231250000008
83 2 -2.0 15.787261875000008 15.787261875000008 6.765969375000002
84 2 -2.0 15.787261875000008 11.276615625000005 6.765969375000002
85 1 4.0 9.021292500000003 9.021292500000003 9.021292500000003
86 1 4.0 9.021292500000003 13.531938750000004 13.531938750000004
87 1 4.0 13.531938750000004 9.021292500000003 13.531938750000004
88 1 4.0 13.531938750000004 13.531938750000004 9.021292500000003
89 2 -2.0 11.276615625000005 11.276615625000005 15.787261875000008
90 2 -2.0 11.276615625000005 15.787261875000008 15.787261875000008
91 2 -2.0 11.276615625000005 15.787261875000008 11.276615625000005
92 2 -2.0 11.276615625000005 11.276615625000005 11.276615625000005
93 2 -2.0 15.787261875000008 11.276615625000005 11.276615625000005
94 2 -2.0 15.787261875000008 15.787261875000008 11.276615625000005
95 2 -2.0 15.787261875000008 15.787261875000008 15.787261875000008
96 2 -2.0 15.787261875000008 11.276615625000005 15.787261875000008
