 # "Ce32 O64"
  
          96  atoms
           2  atom types
 
0.0 15.308860000000005 xlo xhi
0.0 15.308860000000005 ylo yhi
0.0 15.308860000000005 zlo zhi
 
Masses
 
            1   140.11600000            # Ce
            2   15.99900000             # O
 
Atoms
 
1 1 4.0 0.0 0.0 0.0
2 1 4.0 0.0 3.827215000000001 3.827215000000001
3 1 4.0 3.827215000000001 0.0 3.827215000000001
4 1 4.0 3.827215000000001 3.827215000000001 0.0
5 2 -2.0 1.9136075000000006 1.9136075000000006 5.740822500000001
6 2 -2.0 1.9136075000000006 5.740822500000001 5.740822500000001
7 2 -2.0 1.9136075000000006 5.740822500000001 1.9136075000000006
8 2 -2.0 1.9136075000000006 1.9136075000000006 1.9136075000000006
9 2 -2.0 5.740822500000001 1.9136075000000006 1.9136075000000006
10 2 -2.0 5.740822500000001 5.740822500000001 1.9136075000000006
11 2 -2.0 5.740822500000001 5.740822500000001 5.740822500000001
12 2 -2.0 5.740822500000001 1.9136075000000006 5.740822500000001
13 1 4.0 0.0 0.0 7.654430000000002
14 1 4.0 0.0 3.827215000000001 11.481645000000002
15 1 4.0 3.827215000000001 15.308860000000005 11.481645000000002
16 1 4.0 3.827215000000001 3.827215000000001 7.654430000000002
17 2 -2.0 1.9136075000000006 1.9136075000000006 13.395252500000005
18 2 -2.0 1.9136075000000006 5.740822500000001 13.395252500000005
19 2 -2.0 1.9136075000000006 5.740822500000001 9.568037500000003
20 2 -2.0 1.9136075000000006 1.9136075000000006 9.568037500000003
21 2 -2.0 5.740822500000001 1.9136075000000006 9.568037500000003
22 2 -2.0 5.740822500000001 5.740822500000001 9.568037500000003
23 2 -2.0 5.740822500000001 5.740822500000001 13.395252500000005
24 2 -2.0 5.740822500000001 1.9136075000000006 13.395252500000005
25 1 4.0 0.0 7.654430000000002 0.0
26 1 4.0 0.0 11.481645000000002 3.827215000000001
27 1 4.0 3.827215000000001 7.654430000000002 3.827215000000001
28 1 4.0 3.827215000000001 11.481645000000002 0.0
29 2 -2.0 1.9136075000000006 9.568037500000003 5.740822500000001
30 2 -2.0 1.9136075000000006 13.395252500000005 5.740822500000001
31 2 -2.0 1.9136075000000006 13.395252500000005 1.9136075000000006
32 2 -2.0 1.9136075000000006 9.568037500000003 1.9136075000000006
33 2 -2.0 5.740822500000001 9.568037500000003 1.9136075000000006
34 2 -2.0 5.740822500000001 13.395252500000005 1.9136075000000006
35 2 -2.0 5.740822500000001 13.395252500000005 5.740822500000001
36 2 -2.0 5.740822500000001 9.568037500000003 5.740822500000001
37 1 4.0 0.0 7.654430000000002 7.654430000000002
38 1 4.0 0.0 11.481645000000002 11.481645000000002
39 1 4.0 3.827215000000001 7.654430000000002 11.481645000000002
40 1 4.0 3.827215000000001 11.481645000000002 7.654430000000002
41 2 -2.0 1.9136075000000006 9.568037500000003 13.395252500000005
42 2 -2.0 1.9136075000000006 13.395252500000005 13.395252500000005
43 2 -2.0 1.9136075000000006 13.395252500000005 9.568037500000003
44 2 -2.0 1.9136075000000006 9.568037500000003 9.568037500000003
45 2 -2.0 5.740822500000001 9.568037500000003 9.568037500000003
46 2 -2.0 5.740822500000001 13.395252500000005 9.568037500000003
47 2 -2.0 5.740822500000001 13.395252500000005 13.395252500000005
48 2 -2.0 5.740822500000001 9.568037500000003 13.395252500000005
49 1 4.0 7.654430000000002 0.0 0.0
50 1 4.0 7.654430000000002 3.827215000000001 3.827215000000001
51 1 4.0 11.481645000000002 0.0 3.827215000000001
52 1 4.0 11.481645000000002 3.827215000000001 0.0
53 2 -2.0 9.568037500000003 1.9136075000000006 5.740822500000001
54 2 -2.0 9.568037500000003 5.740822500000001 5.740822500000001
55 2 -2.0 9.568037500000003 5.740822500000001 1.9136075000000006
56 2 -2.0 9.568037500000003 1.9136075000000006 1.9136075000000006
57 2 -2.0 13.395252500000005 1.9136075000000006 1.9136075000000006
58 2 -2.0 13.395252500000005 5.740822500000001 1.9136075000000006
59 2 -2.0 13.395252500000005 5.740822500000001 5.740822500000001
60 2 -2.0 13.395252500000005 1.9136075000000006 5.740822500000001
61 1 4.0 7.654430000000002 0.0 7.654430000000002
62 1 4.0 7.654430000000002 3.827215000000001 11.481645000000002
63 1 4.0 11.481645000000002 15.308860000000005 11.481645000000002
64 1 4.0 11.481645000000002 3.827215000000001 7.654430000000002
65 2 -2.0 9.568037500000003 1.9136075000000006 13.395252500000005
66 2 -2.0 9.568037500000003 5.740822500000001 13.395252500000005
67 2 -2.0 9.568037500000003 5.740822500000001 9.568037500000003
68 2 -2.0 9.568037500000003 1.9136075000000006 9.568037500000003
69 2 -2.0 13.395252500000005 1.9136075000000006 9.568037500000003
70 2 -2.0 13.395252500000005 5.740822500000001 9.568037500000003
71 2 -2.0 13.395252500000005 5.740822500000001 13.395252500000005
72 2 -2.0 13.395252500000005 1.9136075000000006 13.395252500000005
73 1 4.0 7.654430000000002 7.654430000000002 0.0
74 1 4.0 7.654430000000002 11.481645000000002 3.827215000000001
75 1 4.0 11.481645000000002 7.654430000000002 3.827215000000001
76 1 4.0 11.481645000000002 11.481645000000002 0.0
77 2 -2.0 9.568037500000003 9.568037500000003 5.740822500000001
78 2 -2.0 9.568037500000003 13.395252500000005 5.740822500000001
79 2 -2.0 9.568037500000003 13.395252500000005 1.9136075000000006
80 2 -2.0 9.568037500000003 9.568037500000003 1.9136075000000006
81 2 -2.0 13.395252500000005 9.568037500000003 1.9136075000000006
82 2 -2.0 13.395252500000005 13.395252500000005 1.9136075000000006
83 2 -2.0 13.395252500000005 13.395252500000005 5.740822500000001
84 2 -2.0 13.395252500000005 9.568037500000003 5.740822500000001
85 1 4.0 7.654430000000002 7.654430000000002 7.654430000000002
86 1 4.0 7.654430000000002 11.481645000000002 11.481645000000002
87 1 4.0 11.481645000000002 7.654430000000002 11.481645000000002
88 1 4.0 11.481645000000002 11.481645000000002 7.654430000000002
89 2 -2.0 9.568037500000003 9.568037500000003 13.395252500000005
90 2 -2.0 9.568037500000003 13.395252500000005 13.395252500000005
91 2 -2.0 9.568037500000003 13.395252500000005 9.568037500000003
92 2 -2.0 9.568037500000003 9.568037500000003 9.568037500000003
93 2 -2.0 13.395252500000005 9.568037500000003 9.568037500000003
94 2 -2.0 13.395252500000005 13.395252500000005 9.568037500000003
95 2 -2.0 13.395252500000005 13.395252500000005 13.395252500000005
96 2 -2.0 13.395252500000005 9.568037500000003 13.395252500000005
