 # "Ce32 O64"
  
          96  atoms
           2  atom types
 
0.0 11.372296 xlo xhi
0.0 11.372296 ylo yhi
0.0 11.372296 zlo zhi
 
Masses
 
            1   140.11600000            # Ce
            2   15.99900000             # O
 
Atoms
 
1 1 4.0 0.0 0.0 0.0
2 1 4.0 0.0 2.843074 2.843074
3 1 4.0 2.843074 0.0 2.843074
4 1 4.0 2.843074 2.843074 0.0
5 2 -2.0 1.421537 1.421537 4.2646109999999995
6 2 -2.0 1.421537 4.2646109999999995 4.2646109999999995
7 2 -2.0 1.421537 4.2646109999999995 1.421537
8 2 -2.0 1.421537 1.421537 1.421537
9 2 -2.0 4.2646109999999995 1.421537 1.421537
10 2 -2.0 4.2646109999999995 4.2646109999999995 1.421537
11 2 -2.0 4.2646109999999995 4.2646109999999995 4.2646109999999995
12 2 -2.0 4.2646109999999995 1.421537 4.2646109999999995
13 1 4.0 0.0 0.0 5.686148
14 1 4.0 0.0 2.843074 8.529221999999999
15 1 4.0 2.843074 11.372296 8.529221999999999
16 1 4.0 2.843074 2.843074 5.686148
17 2 -2.0 1.421537 1.421537 9.950759000000001
18 2 -2.0 1.421537 4.2646109999999995 9.950759000000001
19 2 -2.0 1.421537 4.2646109999999995 7.107685000000001
20 2 -2.0 1.421537 1.421537 7.107685000000001
21 2 -2.0 4.2646109999999995 1.421537 7.107685000000001
22 2 -2.0 4.2646109999999995 4.2646109999999995 7.107685000000001
23 2 -2.0 4.2646109999999995 4.2646109999999995 9.950759000000001
24 2 -2.0 4.2646109999999995 1.421537 9.950759000000001
25 1 4.0 0.0 5.686148 0.0
26 1 4.0 0.0 8.529221999999999 2.843074
27 1 4.0 2.843074 5.686148 2.843074
28 1 4.0 2.843074 8.529221999999999 0.0
29 2 -2.0 1.421537 7.107685000000001 4.2646109999999995
30 2 -2.0 1.421537 9.950759000000001 4.2646109999999995
31 2 -2.0 1.421537 9.950759000000001 1.421537
32 2 -2.0 1.421537 7.107685000000001 1.421537
33 2 -2.0 4.2646109999999995 7.107685000000001 1.421537
34 2 -2.0 4.2646109999999995 9.950759000000001 1.421537
35 2 -2.0 4.2646109999999995 9.950759000000001 4.2646109999999995
36 2 -2.0 4.2646109999999995 7.107685000000001 4.2646109999999995
37 1 4.0 0.0 5.686148 5.686148
38 1 4.0 0.0 8.529221999999999 8.529221999999999
39 1 4.0 2.843074 5.686148 8.529221999999999
40 1 4.0 2.843074 8.529221999999999 5.686148
41 2 -2.0 1.421537 7.107685000000001 9.950759000000001
42 2 -2.0 1.421537 9.950759000000001 9.950759000000001
43 2 -2.0 1.421537 9.950759000000001 7.107685000000001
44 2 -2.0 1.421537 7.107685000000001 7.107685000000001
45 2 -2.0 4.2646109999999995 7.107685000000001 7.107685000000001
46 2 -2.0 4.2646109999999995 9.950759000000001 7.107685000000001
47 2 -2.0 4.2646109999999995 9.950759000000001 9.950759000000001
48 2 -2.0 4.2646109999999995 7.107685000000001 9.950759000000001
49 1 4.0 5.686148 0.0 0.0
50 1 4.0 5.686148 2.843074 2.843074
51 1 4.0 8.529221999999999 0.0 2.843074
52 1 4.0 8.529221999999999 2.843074 0.0
53 2 -2.0 7.107685000000001 1.421537 4.2646109999999995
54 2 -2.0 7.107685000000001 4.2646109999999995 4.2646109999999995
55 2 -2.0 7.107685000000001 4.2646109999999995 1.421537
56 2 -2.0 7.107685000000001 1.421537 1.421537
57 2 -2.0 9.950759000000001 1.421537 1.421537
58 2 -2.0 9.950759000000001 4.2646109999999995 1.421537
59 2 -2.0 9.950759000000001 4.2646109999999995 4.2646109999999995
60 2 -2.0 9.950759000000001 1.421537 4.2646109999999995
61 1 4.0 5.686148 0.0 5.686148
62 1 4.0 5.686148 2.843074 8.529221999999999
63 1 4.0 8.529221999999999 11.372296 8.529221999999999
64 1 4.0 8.529221999999999 2.843074 5.686148
65 2 -2.0 7.107685000000001 1.421537 9.950759000000001
66 2 -2.0 7.107685000000001 4.2646109999999995 9.950759000000001
67 2 -2.0 7.107685000000001 4.2646109999999995 7.107685000000001
68 2 -2.0 7.107685000000001 1.421537 7.107685000000001
69 2 -2.0 9.950759000000001 1.421537 7.107685000000001
70 2 -2.0 9.950759000000001 4.2646109999999995 7.107685000000001
71 2 -2.0 9.950759000000001 4.2646109999999995 9.950759000000001
72 2 -2.0 9.950759000000001 1.421537 9.950759000000001
73 1 4.0 5.686148 5.686148 0.0
74 1 4.0 5.686148 8.529221999999999 2.843074
75 1 4.0 8.529221999999999 5.686148 2.843074
76 1 4.0 8.529221999999999 8.529221999999999 0.0
77 2 -2.0 7.107685000000001 7.107685000000001 4.2646109999999995
78 2 -2.0 7.107685000000001 9.950759000000001 4.2646109999999995
79 2 -2.0 7.107685000000001 9.950759000000001 1.421537
80 2 -2.0 7.107685000000001 7.107685000000001 1.421537
81 2 -2.0 9.950759000000001 7.107685000000001 1.421537
82 2 -2.0 9.950759000000001 9.950759000000001 1.421537
83 2 -2.0 9.950759000000001 9.950759000000001 4.2646109999999995
84 2 -2.0 9.950759000000001 7.107685000000001 4.2646109999999995
85 1 4.0 5.686148 5.686148 5.686148
86 1 4.0 5.686148 8.529221999999999 8.529221999999999
87 1 4.0 8.529221999999999 5.686148 8.529221999999999
88 1 4.0 8.529221999999999 8.529221999999999 5.686148
89 2 -2.0 7.107685000000001 7.107685000000001 9.950759000000001
90 2 -2.0 7.107685000000001 9.950759000000001 9.950759000000001
91 2 -2.0 7.107685000000001 9.950759000000001 7.107685000000001
92 2 -2.0 7.107685000000001 7.107685000000001 7.107685000000001
93 2 -2.0 9.950759000000001 7.107685000000001 7.107685000000001
94 2 -2.0 9.950759000000001 9.950759000000001 7.107685000000001
95 2 -2.0 9.950759000000001 9.950759000000001 9.950759000000001
96 2 -2.0 9.950759000000001 7.107685000000001 9.950759000000001
