 # "Ce32 O64"
  
          96  atoms
           2  atom types
 
0.0 14.762115000000005 xlo xhi
0.0 14.762115000000005 ylo yhi
0.0 14.762115000000005 zlo zhi
 
Masses
 
            1   140.11600000            # Ce
            2   15.99900000             # O
 
Atoms
 
1 1 4.0 0.0 0.0 0.0
2 1 4.0 0.0 3.6905287500000012 3.6905287500000012
3 1 4.0 3.6905287500000012 0.0 3.6905287500000012
4 1 4.0 3.6905287500000012 3.6905287500000012 0.0
5 2 -2.0 1.8452643750000006 1.8452643750000006 5.5357931250000005
6 2 -2.0 1.8452643750000006 5.5357931250000005 5.5357931250000005
7 2 -2.0 1.8452643750000006 5.5357931250000005 1.8452643750000006
8 2 -2.0 1.8452643750000006 1.8452643750000006 1.8452643750000006
9 2 -2.0 5.5357931250000005 1.8452643750000006 1.8452643750000006
10 2 -2.0 5.5357931250000005 5.5357931250000005 1.8452643750000006
11 2 -2.0 5.5357931250000005 5.5357931250000005 5.5357931250000005
12 2 -2.0 5.5357931250000005 1.8452643750000006 5.5357931250000005
13 1 4.0 0.0 0.0 7.3810575000000025
14 1 4.0 0.0 3.6905287500000012 11.071586250000001
15 1 4.0 3.6905287500000012 14.762115000000005 11.071586250000001
16 1 4.0 3.6905287500000012 3.6905287500000012 7.3810575000000025
17 2 -2.0 1.8452643750000006 1.8452643750000006 12.916850625000004
18 2 -2.0 1.8452643750000006 5.5357931250000005 12.916850625000004
19 2 -2.0 1.8452643750000006 5.5357931250000005 9.226321875000002
20 2 -2.0 1.8452643750000006 1.8452643750000006 9.226321875000002
21 2 -2.0 5.5357931250000005 1.8452643750000006 9.226321875000002
22 2 -2.0 5.5357931250000005 5.5357931250000005 9.226321875000002
23 2 -2.0 5.5357931250000005 5.5357931250000005 12.916850625000004
24 2 -2.0 5.5357931250000005 1.8452643750000006 12.916850625000004
25 1 4.0 0.0 7.3810575000000025 0.0
26 1 4.0 0.0 11.071586250000001 3.6905287500000012
27 1 4.0 3.6905287500000012 7.3810575000000025 3.6905287500000012
28 1 4.0 3.6905287500000012 11.071586250000001 0.0
29 2 -2.0 1.8452643750000006 9.226321875000002 5.5357931250000005
30 2 -2.0 1.8452643750000006 12.916850625000004 5.5357931250000005
31 2 -2.0 1.8452643750000006 12.916850625000004 1.8452643750000006
32 2 -2.0 1.8452643750000006 9.226321875000002 1.8452643750000006
33 2 -2.0 5.5357931250000005 9.226321875000002 1.8452643750000006
34 2 -2.0 5.5357931250000005 12.916850625000004 1.8452643750000006
35 2 -2.0 5.5357931250000005 12.916850625000004 5.5357931250000005
36 2 -2.0 5.5357931250000005 9.226321875000002 5.5357931250000005
37 1 4.0 0.0 7.3810575000000025 7.3810575000000025
38 1 4.0 0.0 11.071586250000001 11.071586250000001
39 1 4.0 3.6905287500000012 7.3810575000000025 11.071586250000001
40 1 4.0 3.6905287500000012 11.071586250000001 7.3810575000000025
41 2 -2.0 1.8452643750000006 9.226321875000002 12.916850625000004
42 2 -2.0 1.8452643750000006 12.916850625000004 12.916850625000004
43 2 -2.0 1.8452643750000006 12.916850625000004 9.226321875000002
44 2 -2.0 1.8452643750000006 9.226321875000002 9.226321875000002
45 2 -2.0 5.5357931250000005 9.226321875000002 9.226321875000002
46 2 -2.0 5.5357931250000005 12.916850625000004 9.226321875000002
47 2 -2.0 5.5357931250000005 12.916850625000004 12.916850625000004
48 2 -2.0 5.5357931250000005 9.226321875000002 12.916850625000004
49 1 4.0 7.3810575000000025 0.0 0.0
50 1 4.0 7.3810575000000025 3.6905287500000012 3.6905287500000012
51 1 4.0 11.071586250000001 0.0 3.6905287500000012
52 1 4.0 11.071586250000001 3.6905287500000012 0.0
53 2 -2.0 9.226321875000002 1.8452643750000006 5.5357931250000005
54 2 -2.0 9.226321875000002 5.5357931250000005 5.5357931250000005
55 2 -2.0 9.226321875000002 5.5357931250000005 1.8452643750000006
56 2 -2.0 9.226321875000002 1.8452643750000006 1.8452643750000006
57 2 -2.0 12.916850625000004 1.8452643750000006 1.8452643750000006
58 2 -2.0 12.916850625000004 5.5357931250000005 1.8452643750000006
59 2 -2.0 12.916850625000004 5.5357931250000005 5.5357931250000005
60 2 -2.0 12.916850625000004 1.8452643750000006 5.5357931250000005
61 1 4.0 7.3810575000000025 0.0 7.3810575000000025
62 1 4.0 7.3810575000000025 3.6905287500000012 11.071586250000001
63 1 4.0 11.071586250000001 14.762115000000005 11.071586250000001
64 1 4.0 11.071586250000001 3.6905287500000012 7.3810575000000025
65 2 -2.0 9.226321875000002 1.8452643750000006 12.916850625000004
66 2 -2.0 9.226321875000002 5.5357931250000005 12.916850625000004
67 2 -2.0 9.226321875000002 5.5357931250000005 9.226321875000002
68 2 -2.0 9.226321875000002 1.8452643750000006 9.226321875000002
69 2 -2.0 12.916850625000004 1.8452643750000006 9.226321875000002
70 2 -2.0 12.916850625000004 5.5357931250000005 9.226321875000002
71 2 -2.0 12.916850625000004 5.5357931250000005 12.916850625000004
72 2 -2.0 12.916850625000004 1.8452643750000006 12.916850625000004
73 1 4.0 7.3810575000000025 7.3810575000000025 0.0
74 1 4.0 7.3810575000000025 11.071586250000001 3.6905287500000012
75 1 4.0 11.071586250000001 7.3810575000000025 3.6905287500000012
76 1 4.0 11.071586250000001 11.071586250000001 0.0
77 2 -2.0 9.226321875000002 9.226321875000002 5.5357931250000005
78 2 -2.0 9.226321875000002 12.916850625000004 5.5357931250000005
79 2 -2.0 9.226321875000002 12.916850625000004 1.8452643750000006
80 2 -2.0 9.226321875000002 9.226321875000002 1.8452643750000006
81 2 -2.0 12.916850625000004 9.226321875000002 1.8452643750000006
82 2 -2.0 12.916850625000004 12.916850625000004 1.8452643750000006
83 2 -2.0 12.916850625000004 12.916850625000004 5.5357931250000005
84 2 -2.0 12.916850625000004 9.226321875000002 5.5357931250000005
85 1 4.0 7.3810575000000025 7.3810575000000025 7.3810575000000025
86 1 4.0 7.3810575000000025 11.071586250000001 11.071586250000001
87 1 4.0 11.071586250000001 7.3810575000000025 11.071586250000001
88 1 4.0 11.071586250000001 11.071586250000001 7.3810575000000025
89 2 -2.0 9.226321875000002 9.226321875000002 12.916850625000004
90 2 -2.0 9.226321875000002 12.916850625000004 12.916850625000004
91 2 -2.0 9.226321875000002 12.916850625000004 9.226321875000002
92 2 -2.0 9.226321875000002 9.226321875000002 9.226321875000002
93 2 -2.0 12.916850625000004 9.226321875000002 9.226321875000002
94 2 -2.0 12.916850625000004 12.916850625000004 9.226321875000002
95 2 -2.0 12.916850625000004 12.916850625000004 12.916850625000004
96 2 -2.0 12.916850625000004 9.226321875000002 12.916850625000004
