 # "Ce32 O64"
  
          96  atoms
           2  atom types
 
0.0 18.370632000000008 xlo xhi
0.0 18.370632000000008 ylo yhi
0.0 18.370632000000008 zlo zhi
 
Masses
 
            1   140.11600000            # Ce
            2   15.99900000             # O
 
Atoms
 
1 1 4.0 0.0 0.0 0.0
2 1 4.0 0.0 4.592658000000002 4.592658000000002
3 1 4.0 4.592658000000002 0.0 4.592658000000002
4 1 4.0 4.592658000000002 4.592658000000002 0.0
5 2 -2.0 2.296329000000001 2.296329000000001 6.888987000000002
6 2 -2.0 2.296329000000001 6.888987000000002 6.888987000000002
7 2 -2.0 2.296329000000001 6.888987000000002 2.296329000000001
8 2 -2.0 2.296329000000001 2.296329000000001 2.296329000000001
9 2 -2.0 6.888987000000002 2.296329000000001 2.296329000000001
10 2 -2.0 6.888987000000002 6.888987000000002 2.296329000000001
11 2 -2.0 6.888987000000002 6.888987000000002 6.888987000000002
12 2 -2.0 6.888987000000002 2.296329000000001 6.888987000000002
13 1 4.0 0.0 0.0 9.185316000000004
14 1 4.0 0.0 4.592658000000002 13.777974000000004
15 1 4.0 4.592658000000002 18.370632000000008 13.777974000000004
16 1 4.0 4.592658000000002 4.592658000000002 9.185316000000004
17 2 -2.0 2.296329000000001 2.296329000000001 16.074303000000008
18 2 -2.0 2.296329000000001 6.888987000000002 16.074303000000008
19 2 -2.0 2.296329000000001 6.888987000000002 11.481645000000004
20 2 -2.0 2.296329000000001 2.296329000000001 11.481645000000004
21 2 -2.0 6.888987000000002 2.296329000000001 11.481645000000004
22 2 -2.0 6.888987000000002 6.888987000000002 11.481645000000004
23 2 -2.0 6.888987000000002 6.888987000000002 16.074303000000008
24 2 -2.0 6.888987000000002 2.296329000000001 16.074303000000008
25 1 4.0 0.0 9.185316000000004 0.0
26 1 4.0 0.0 13.777974000000004 4.592658000000002
27 1 4.0 4.592658000000002 9.185316000000004 4.592658000000002
28 1 4.0 4.592658000000002 13.777974000000004 0.0
29 2 -2.0 2.296329000000001 11.481645000000004 6.888987000000002
30 2 -2.0 2.296329000000001 16.074303000000008 6.888987000000002
31 2 -2.0 2.296329000000001 16.074303000000008 2.296329000000001
32 2 -2.0 2.296329000000001 11.481645000000004 2.296329000000001
33 2 -2.0 6.888987000000002 11.481645000000004 2.296329000000001
34 2 -2.0 6.888987000000002 16.074303000000008 2.296329000000001
35 2 -2.0 6.888987000000002 16.074303000000008 6.888987000000002
36 2 -2.0 6.888987000000002 11.481645000000004 6.888987000000002
37 1 4.0 0.0 9.185316000000004 9.185316000000004
38 1 4.0 0.0 13.777974000000004 13.777974000000004
39 1 4.0 4.592658000000002 9.185316000000004 13.777974000000004
40 1 4.0 4.592658000000002 13.777974000000004 9.185316000000004
41 2 -2.0 2.296329000000001 11.481645000000004 16.074303000000008
42 2 -2.0 2.296329000000001 16.074303000000008 16.074303000000008
43 2 -2.0 2.296329000000001 16.074303000000008 11.481645000000004
44 2 -2.0 2.296329000000001 11.481645000000004 11.481645000000004
45 2 -2.0 6.888987000000002 11.481645000000004 11.481645000000004
46 2 -2.0 6.888987000000002 16.074303000000008 11.481645000000004
47 2 -2.0 6.888987000000002 16.074303000000008 16.074303000000008
48 2 -2.0 6.888987000000002 11.481645000000004 16.074303000000008
49 1 4.0 9.185316000000004 0.0 0.0
50 1 4.0 9.185316000000004 4.592658000000002 4.592658000000002
51 1 4.0 13.777974000000004 0.0 4.592658000000002
52 1 4.0 13.777974000000004 4.592658000000002 0.0
53 2 -2.0 11.481645000000004 2.296329000000001 6.888987000000002
54 2 -2.0 11.481645000000004 6.888987000000002 6.888987000000002
55 2 -2.0 11.481645000000004 6.888987000000002 2.296329000000001
56 2 -2.0 11.481645000000004 2.296329000000001 2.296329000000001
57 2 -2.0 16.074303000000008 2.296329000000001 2.296329000000001
58 2 -2.0 16.074303000000008 6.888987000000002 2.296329000000001
59 2 -2.0 16.074303000000008 6.888987000000002 6.888987000000002
60 2 -2.0 16.074303000000008 2.296329000000001 6.888987000000002
61 1 4.0 9.185316000000004 0.0 9.185316000000004
62 1 4.0 9.185316000000004 4.592658000000002 13.777974000000004
63 1 4.0 13.777974000000004 18.370632000000008 13.777974000000004
64 1 4.0 13.777974000000004 4.592658000000002 9.185316000000004
65 2 -2.0 11.481645000000004 2.296329000000001 16.074303000000008
66 2 -2.0 11.481645000000004 6.888987000000002 16.074303000000008
67 2 -2.0 11.481645000000004 6.888987000000002 11.481645000000004
68 2 -2.0 11.481645000000004 2.296329000000001 11.481645000000004
69 2 -2.0 16.074303000000008 2.296329000000001 11.481645000000004
70 2 -2.0 16.074303000000008 6.888987000000002 11.481645000000004
71 2 -2.0 16.074303000000008 6.888987000000002 16.074303000000008
72 2 -2.0 16.074303000000008 2.296329000000001 16.074303000000008
73 1 4.0 9.185316000000004 9.185316000000004 0.0
74 1 4.0 9.185316000000004 13.777974000000004 4.592658000000002
75 1 4.0 13.777974000000004 9.185316000000004 4.592658000000002
76 1 4.0 13.777974000000004 13.777974000000004 0.0
77 2 -2.0 11.481645000000004 11.481645000000004 6.888987000000002
78 2 -2.0 11.481645000000004 16.074303000000008 6.888987000000002
79 2 -2.0 11.481645000000004 16.074303000000008 2.296329000000001
80 2 -2.0 11.481645000000004 11.481645000000004 2.296329000000001
81 2 -2.0 16.074303000000008 11.481645000000004 2.296329000000001
82 2 -2.0 16.074303000000008 16.074303000000008 2.296329000000001
83 2 -2.0 16.074303000000008 16.074303000000008 6.888987000000002
84 2 -2.0 16.074303000000008 11.481645000000004 6.888987000000002
85 1 4.0 9.185316000000004 9.185316000000004 9.185316000000004
86 1 4.0 9.185316000000004 13.777974000000004 13.777974000000004
87 1 4.0 13.777974000000004 9.185316000000004 13.777974000000004
88 1 4.0 13.777974000000004 13.777974000000004 9.185316000000004
89 2 -2.0 11.481645000000004 11.481645000000004 16.074303000000008
90 2 -2.0 11.481645000000004 16.074303000000008 16.074303000000008
91 2 -2.0 11.481645000000004 16.074303000000008 11.481645000000004
92 2 -2.0 11.481645000000004 11.481645000000004 11.481645000000004
93 2 -2.0 16.074303000000008 11.481645000000004 11.481645000000004
94 2 -2.0 16.074303000000008 16.074303000000008 11.481645000000004
95 2 -2.0 16.074303000000008 16.074303000000008 16.074303000000008
96 2 -2.0 16.074303000000008 11.481645000000004 16.074303000000008
