 # "Ce32 O64"
  
          96  atoms
           2  atom types
 
0.0 10.497504000000001 xlo xhi
0.0 10.497504000000001 ylo yhi
0.0 10.497504000000001 zlo zhi
 
Masses
 
            1   140.11600000            # Ce
            2   15.99900000             # O
 
Atoms
 
1 1 4.0 0.0 0.0 0.0
2 1 4.0 0.0 2.6243760000000003 2.6243760000000003
3 1 4.0 2.6243760000000003 0.0 2.6243760000000003
4 1 4.0 2.6243760000000003 2.6243760000000003 0.0
5 2 -2.0 1.3121880000000001 1.3121880000000001 3.9365639999999993
6 2 -2.0 1.3121880000000001 3.9365639999999993 3.9365639999999993
7 2 -2.0 1.3121880000000001 3.9365639999999993 1.3121880000000001
8 2 -2.0 1.3121880000000001 1.3121880000000001 1.3121880000000001
9 2 -2.0 3.9365639999999993 1.3121880000000001 1.3121880000000001
10 2 -2.0 3.9365639999999993 3.9365639999999993 1.3121880000000001
11 2 -2.0 3.9365639999999993 3.9365639999999993 3.9365639999999993
12 2 -2.0 3.9365639999999993 1.3121880000000001 3.9365639999999993
13 1 4.0 0.0 0.0 5.2487520000000005
14 1 4.0 0.0 2.6243760000000003 7.873127999999999
15 1 4.0 2.6243760000000003 10.497504000000001 7.873127999999999
16 1 4.0 2.6243760000000003 2.6243760000000003 5.2487520000000005
17 2 -2.0 1.3121880000000001 1.3121880000000001 9.185316
18 2 -2.0 1.3121880000000001 3.9365639999999993 9.185316
19 2 -2.0 1.3121880000000001 3.9365639999999993 6.5609399999999996
20 2 -2.0 1.3121880000000001 1.3121880000000001 6.5609399999999996
21 2 -2.0 3.9365639999999993 1.3121880000000001 6.5609399999999996
22 2 -2.0 3.9365639999999993 3.9365639999999993 6.5609399999999996
23 2 -2.0 3.9365639999999993 3.9365639999999993 9.185316
24 2 -2.0 3.9365639999999993 1.3121880000000001 9.185316
25 1 4.0 0.0 5.2487520000000005 0.0
26 1 4.0 0.0 7.873127999999999 2.6243760000000003
27 1 4.0 2.6243760000000003 5.2487520000000005 2.6243760000000003
28 1 4.0 2.6243760000000003 7.873127999999999 0.0
29 2 -2.0 1.3121880000000001 6.5609399999999996 3.9365639999999993
30 2 -2.0 1.3121880000000001 9.185316 3.9365639999999993
31 2 -2.0 1.3121880000000001 9.185316 1.3121880000000001
32 2 -2.0 1.3121880000000001 6.5609399999999996 1.3121880000000001
33 2 -2.0 3.9365639999999993 6.5609399999999996 1.3121880000000001
34 2 -2.0 3.9365639999999993 9.185316 1.3121880000000001
35 2 -2.0 3.9365639999999993 9.185316 3.9365639999999993
36 2 -2.0 3.9365639999999993 6.5609399999999996 3.9365639999999993
37 1 4.0 0.0 5.2487520000000005 5.2487520000000005
38 1 4.0 0.0 7.873127999999999 7.873127999999999
39 1 4.0 2.6243760000000003 5.2487520000000005 7.873127999999999
40 1 4.0 2.6243760000000003 7.873127999999999 5.2487520000000005
41 2 -2.0 1.3121880000000001 6.5609399999999996 9.185316
42 2 -2.0 1.3121880000000001 9.185316 9.185316
43 2 -2.0 1.3121880000000001 9.185316 6.5609399999999996
44 2 -2.0 1.3121880000000001 6.5609399999999996 6.5609399999999996
45 2 -2.0 3.9365639999999993 6.5609399999999996 6.5609399999999996
46 2 -2.0 3.9365639999999993 9.185316 6.5609399999999996
47 2 -2.0 3.9365639999999993 9.185316 9.185316
48 2 -2.0 3.9365639999999993 6.5609399999999996 9.185316
49 1 4.0 5.2487520000000005 0.0 0.0
50 1 4.0 5.2487520000000005 2.6243760000000003 2.6243760000000003
51 1 4.0 7.873127999999999 0.0 2.6243760000000003
52 1 4.0 7.873127999999999 2.6243760000000003 0.0
53 2 -2.0 6.5609399999999996 1.3121880000000001 3.9365639999999993
54 2 -2.0 6.5609399999999996 3.9365639999999993 3.9365639999999993
55 2 -2.0 6.5609399999999996 3.9365639999999993 1.3121880000000001
56 2 -2.0 6.5609399999999996 1.3121880000000001 1.3121880000000001
57 2 -2.0 9.185316 1.3121880000000001 1.3121880000000001
58 2 -2.0 9.185316 3.9365639999999993 1.3121880000000001
59 2 -2.0 9.185316 3.9365639999999993 3.9365639999999993
60 2 -2.0 9.185316 1.3121880000000001 3.9365639999999993
61 1 4.0 5.2487520000000005 0.0 5.2487520000000005
62 1 4.0 5.2487520000000005 2.6243760000000003 7.873127999999999
63 1 4.0 7.873127999999999 10.497504000000001 7.873127999999999
64 1 4.0 7.873127999999999 2.6243760000000003 5.2487520000000005
65 2 -2.0 6.5609399999999996 1.3121880000000001 9.185316
66 2 -2.0 6.5609399999999996 3.9365639999999993 9.185316
67 2 -2.0 6.5609399999999996 3.9365639999999993 6.5609399999999996
68 2 -2.0 6.5609399999999996 1.3121880000000001 6.5609399999999996
69 2 -2.0 9.185316 1.3121880000000001 6.5609399999999996
70 2 -2.0 9.185316 3.9365639999999993 6.5609399999999996
71 2 -2.0 9.185316 3.9365639999999993 9.185316
72 2 -2.0 9.185316 1.3121880000000001 9.185316
73 1 4.0 5.2487520000000005 5.2487520000000005 0.0
74 1 4.0 5.2487520000000005 7.873127999999999 2.6243760000000003
75 1 4.0 7.873127999999999 5.2487520000000005 2.6243760000000003
76 1 4.0 7.873127999999999 7.873127999999999 0.0
77 2 -2.0 6.5609399999999996 6.5609399999999996 3.9365639999999993
78 2 -2.0 6.5609399999999996 9.185316 3.9365639999999993
79 2 -2.0 6.5609399999999996 9.185316 1.3121880000000001
80 2 -2.0 6.5609399999999996 6.5609399999999996 1.3121880000000001
81 2 -2.0 9.185316 6.5609399999999996 1.3121880000000001
82 2 -2.0 9.185316 9.185316 1.3121880000000001
83 2 -2.0 9.185316 9.185316 3.9365639999999993
84 2 -2.0 9.185316 6.5609399999999996 3.9365639999999993
85 1 4.0 5.2487520000000005 5.2487520000000005 5.2487520000000005
86 1 4.0 5.2487520000000005 7.873127999999999 7.873127999999999
87 1 4.0 7.873127999999999 5.2487520000000005 7.873127999999999
88 1 4.0 7.873127999999999 7.873127999999999 5.2487520000000005
89 2 -2.0 6.5609399999999996 6.5609399999999996 9.185316
90 2 -2.0 6.5609399999999996 9.185316 9.185316
91 2 -2.0 6.5609399999999996 9.185316 6.5609399999999996
92 2 -2.0 6.5609399999999996 6.5609399999999996 6.5609399999999996
93 2 -2.0 9.185316 6.5609399999999996 6.5609399999999996
94 2 -2.0 9.185316 9.185316 6.5609399999999996
95 2 -2.0 9.185316 9.185316 9.185316
96 2 -2.0 9.185316 6.5609399999999996 9.185316
