 # "Ce32 O64"
  
          96  atoms
           2  atom types
 
0.0 13.121880000000003 xlo xhi
0.0 13.121880000000003 ylo yhi
0.0 13.121880000000003 zlo zhi
 
Masses
 
            1   140.11600000            # Ce
            2   15.99900000             # O
 
Atoms
 
1 1 4.0 0.0 0.0 0.0
2 1 4.0 0.0 3.2804700000000007 3.2804700000000007
3 1 4.0 3.2804700000000007 0.0 3.2804700000000007
4 1 4.0 3.2804700000000007 3.2804700000000007 0.0
5 2 -2.0 1.6402350000000003 1.6402350000000003 4.920705
6 2 -2.0 1.6402350000000003 4.920705 4.920705
7 2 -2.0 1.6402350000000003 4.920705 1.6402350000000003
8 2 -2.0 1.6402350000000003 1.6402350000000003 1.6402350000000003
9 2 -2.0 4.920705 1.6402350000000003 1.6402350000000003
10 2 -2.0 4.920705 4.920705 1.6402350000000003
11 2 -2.0 4.920705 4.920705 4.920705
12 2 -2.0 4.920705 1.6402350000000003 4.920705
13 1 4.0 0.0 0.0 6.560940000000001
14 1 4.0 0.0 3.2804700000000007 9.84141
15 1 4.0 3.2804700000000007 13.121880000000003 9.84141
16 1 4.0 3.2804700000000007 3.2804700000000007 6.560940000000001
17 2 -2.0 1.6402350000000003 1.6402350000000003 11.481645000000002
18 2 -2.0 1.6402350000000003 4.920705 11.481645000000002
19 2 -2.0 1.6402350000000003 4.920705 8.201175000000001
20 2 -2.0 1.6402350000000003 1.6402350000000003 8.201175000000001
21 2 -2.0 4.920705 1.6402350000000003 8.201175000000001
22 2 -2.0 4.920705 4.920705 8.201175000000001
23 2 -2.0 4.920705 4.920705 11.481645000000002
24 2 -2.0 4.920705 1.6402350000000003 11.481645000000002
25 1 4.0 0.0 6.560940000000001 0.0
26 1 4.0 0.0 9.84141 3.2804700000000007
27 1 4.0 3.2804700000000007 6.560940000000001 3.2804700000000007
28 1 4.0 3.2804700000000007 9.84141 0.0
29 2 -2.0 1.6402350000000003 8.201175000000001 4.920705
30 2 -2.0 1.6402350000000003 11.481645000000002 4.920705
31 2 -2.0 1.6402350000000003 11.481645000000002 1.6402350000000003
32 2 -2.0 1.6402350000000003 8.201175000000001 1.6402350000000003
33 2 -2.0 4.920705 8.201175000000001 1.6402350000000003
34 2 -2.0 4.920705 11.481645000000002 1.6402350000000003
35 2 -2.0 4.920705 11.481645000000002 4.920705
36 2 -2.0 4.920705 8.201175000000001 4.920705
37 1 4.0 0.0 6.560940000000001 6.560940000000001
38 1 4.0 0.0 9.84141 9.84141
39 1 4.0 3.2804700000000007 6.560940000000001 9.84141
40 1 4.0 3.2804700000000007 9.84141 6.560940000000001
41 2 -2.0 1.6402350000000003 8.201175000000001 11.481645000000002
42 2 -2.0 1.6402350000000003 11.481645000000002 11.481645000000002
43 2 -2.0 1.6402350000000003 11.481645000000002 8.201175000000001
44 2 -2.0 1.6402350000000003 8.201175000000001 8.201175000000001
45 2 -2.0 4.920705 8.201175000000001 8.201175000000001
46 2 -2.0 4.920705 11.481645000000002 8.201175000000001
47 2 -2.0 4.920705 11.481645000000002 11.481645000000002
48 2 -2.0 4.920705 8.201175000000001 11.481645000000002
49 1 4.0 6.560940000000001 0.0 0.0
50 1 4.0 6.560940000000001 3.2804700000000007 3.2804700000000007
51 1 4.0 9.84141 0.0 3.2804700000000007
52 1 4.0 9.84141 3.2804700000000007 0.0
53 2 -2.0 8.201175000000001 1.6402350000000003 4.920705
54 2 -2.0 8.201175000000001 4.920705 4.920705
55 2 -2.0 8.201175000000001 4.920705 1.6402350000000003
56 2 -2.0 8.201175000000001 1.6402350000000003 1.6402350000000003
57 2 -2.0 11.481645000000002 1.6402350000000003 1.6402350000000003
58 2 -2.0 11.481645000000002 4.920705 1.6402350000000003
59 2 -2.0 11.481645000000002 4.920705 4.920705
60 2 -2.0 11.481645000000002 1.6402350000000003 4.920705
61 1 4.0 6.560940000000001 0.0 6.560940000000001
62 1 4.0 6.560940000000001 3.2804700000000007 9.84141
63 1 4.0 9.84141 13.121880000000003 9.84141
64 1 4.0 9.84141 3.2804700000000007 6.560940000000001
65 2 -2.0 8.201175000000001 1.6402350000000003 11.481645000000002
66 2 -2.0 8.201175000000001 4.920705 11.481645000000002
67 2 -2.0 8.201175000000001 4.920705 8.201175000000001
68 2 -2.0 8.201175000000001 1.6402350000000003 8.201175000000001
69 2 -2.0 11.481645000000002 1.6402350000000003 8.201175000000001
70 2 -2.0 11.481645000000002 4.920705 8.201175000000001
71 2 -2.0 11.481645000000002 4.920705 11.481645000000002
72 2 -2.0 11.481645000000002 1.6402350000000003 11.481645000000002
73 1 4.0 6.560940000000001 6.560940000000001 0.0
74 1 4.0 6.560940000000001 9.84141 3.2804700000000007
75 1 4.0 9.84141 6.560940000000001 3.2804700000000007
76 1 4.0 9.84141 9.84141 0.0
77 2 -2.0 8.201175000000001 8.201175000000001 4.920705
78 2 -2.0 8.201175000000001 11.481645000000002 4.920705
79 2 -2.0 8.201175000000001 11.481645000000002 1.6402350000000003
80 2 -2.0 8.201175000000001 8.201175000000001 1.6402350000000003
81 2 -2.0 11.481645000000002 8.201175000000001 1.6402350000000003
82 2 -2.0 11.481645000000002 11.481645000000002 1.6402350000000003
83 2 -2.0 11.481645000000002 11.481645000000002 4.920705
84 2 -2.0 11.481645000000002 8.201175000000001 4.920705
85 1 4.0 6.560940000000001 6.560940000000001 6.560940000000001
86 1 4.0 6.560940000000001 9.84141 9.84141
87 1 4.0 9.84141 6.560940000000001 9.84141
88 1 4.0 9.84141 9.84141 6.560940000000001
89 2 -2.0 8.201175000000001 8.201175000000001 11.481645000000002
90 2 -2.0 8.201175000000001 11.481645000000002 11.481645000000002
91 2 -2.0 8.201175000000001 11.481645000000002 8.201175000000001
92 2 -2.0 8.201175000000001 8.201175000000001 8.201175000000001
93 2 -2.0 11.481645000000002 8.201175000000001 8.201175000000001
94 2 -2.0 11.481645000000002 11.481645000000002 8.201175000000001
95 2 -2.0 11.481645000000002 11.481645000000002 11.481645000000002
96 2 -2.0 11.481645000000002 8.201175000000001 11.481645000000002
