 # "Ce32 O64"
  
          96  atoms
           2  atom types
 
0.0 15.746256000000006 xlo xhi
0.0 15.746256000000006 ylo yhi
0.0 15.746256000000006 zlo zhi
 
Masses
 
            1   140.11600000            # Ce
            2   15.99900000             # O
 
Atoms
 
1 1 4.0 0.0 0.0 0.0
2 1 4.0 0.0 3.9365640000000015 3.9365640000000015
3 1 4.0 3.9365640000000015 0.0 3.9365640000000015
4 1 4.0 3.9365640000000015 3.9365640000000015 0.0
5 2 -2.0 1.9682820000000008 1.9682820000000008 5.904846000000001
6 2 -2.0 1.9682820000000008 5.904846000000001 5.904846000000001
7 2 -2.0 1.9682820000000008 5.904846000000001 1.9682820000000008
8 2 -2.0 1.9682820000000008 1.9682820000000008 1.9682820000000008
9 2 -2.0 5.904846000000001 1.9682820000000008 1.9682820000000008
10 2 -2.0 5.904846000000001 5.904846000000001 1.9682820000000008
11 2 -2.0 5.904846000000001 5.904846000000001 5.904846000000001
12 2 -2.0 5.904846000000001 1.9682820000000008 5.904846000000001
13 1 4.0 0.0 0.0 7.873128000000003
14 1 4.0 0.0 3.9365640000000015 11.809692000000002
15 1 4.0 3.9365640000000015 15.746256000000006 11.809692000000002
16 1 4.0 3.9365640000000015 3.9365640000000015 7.873128000000003
17 2 -2.0 1.9682820000000008 1.9682820000000008 13.777974000000006
18 2 -2.0 1.9682820000000008 5.904846000000001 13.777974000000006
19 2 -2.0 1.9682820000000008 5.904846000000001 9.841410000000003
20 2 -2.0 1.9682820000000008 1.9682820000000008 9.841410000000003
21 2 -2.0 5.904846000000001 1.9682820000000008 9.841410000000003
22 2 -2.0 5.904846000000001 5.904846000000001 9.841410000000003
23 2 -2.0 5.904846000000001 5.904846000000001 13.777974000000006
24 2 -2.0 5.904846000000001 1.9682820000000008 13.777974000000006
25 1 4.0 0.0 7.873128000000003 0.0
26 1 4.0 0.0 11.809692000000002 3.9365640000000015
27 1 4.0 3.9365640000000015 7.873128000000003 3.9365640000000015
28 1 4.0 3.9365640000000015 11.809692000000002 0.0
29 2 -2.0 1.9682820000000008 9.841410000000003 5.904846000000001
30 2 -2.0 1.9682820000000008 13.777974000000006 5.904846000000001
31 2 -2.0 1.9682820000000008 13.777974000000006 1.9682820000000008
32 2 -2.0 1.9682820000000008 9.841410000000003 1.9682820000000008
33 2 -2.0 5.904846000000001 9.841410000000003 1.9682820000000008
34 2 -2.0 5.904846000000001 13.777974000000006 1.9682820000000008
35 2 -2.0 5.904846000000001 13.777974000000006 5.904846000000001
36 2 -2.0 5.904846000000001 9.841410000000003 5.904846000000001
37 1 4.0 0.0 7.873128000000003 7.873128000000003
38 1 4.0 0.0 11.809692000000002 11.809692000000002
39 1 4.0 3.9365640000000015 7.873128000000003 11.809692000000002
40 1 4.0 3.9365640000000015 11.809692000000002 7.873128000000003
41 2 -2.0 1.9682820000000008 9.841410000000003 13.777974000000006
42 2 -2.0 1.9682820000000008 13.777974000000006 13.777974000000006
43 2 -2.0 1.9682820000000008 13.777974000000006 9.841410000000003
44 2 -2.0 1.9682820000000008 9.841410000000003 9.841410000000003
45 2 -2.0 5.904846000000001 9.841410000000003 9.841410000000003
46 2 -2.0 5.904846000000001 13.777974000000006 9.841410000000003
47 2 -2.0 5.904846000000001 13.777974000000006 13.777974000000006
48 2 -2.0 5.904846000000001 9.841410000000003 13.777974000000006
49 1 4.0 7.873128000000003 0.0 0.0
50 1 4.0 7.873128000000003 3.9365640000000015 3.9365640000000015
51 1 4.0 11.809692000000002 0.0 3.9365640000000015
52 1 4.0 11.809692000000002 3.9365640000000015 0.0
53 2 -2.0 9.841410000000003 1.9682820000000008 5.904846000000001
54 2 -2.0 9.841410000000003 5.904846000000001 5.904846000000001
55 2 -2.0 9.841410000000003 5.904846000000001 1.9682820000000008
56 2 -2.0 9.841410000000003 1.9682820000000008 1.9682820000000008
57 2 -2.0 13.777974000000006 1.9682820000000008 1.9682820000000008
58 2 -2.0 13.777974000000006 5.904846000000001 1.9682820000000008
59 2 -2.0 13.777974000000006 5.904846000000001 5.904846000000001
60 2 -2.0 13.777974000000006 1.9682820000000008 5.904846000000001
61 1 4.0 7.873128000000003 0.0 7.873128000000003
62 1 4.0 7.873128000000003 3.9365640000000015 11.809692000000002
63 1 4.0 11.809692000000002 15.746256000000006 11.809692000000002
64 1 4.0 11.809692000000002 3.9365640000000015 7.873128000000003
65 2 -2.0 9.841410000000003 1.9682820000000008 13.777974000000006
66 2 -2.0 9.841410000000003 5.904846000000001 13.777974000000006
67 2 -2.0 9.841410000000003 5.904846000000001 9.841410000000003
68 2 -2.0 9.841410000000003 1.9682820000000008 9.841410000000003
69 2 -2.0 13.777974000000006 1.9682820000000008 9.841410000000003
70 2 -2.0 13.777974000000006 5.904846000000001 9.841410000000003
71 2 -2.0 13.777974000000006 5.904846000000001 13.777974000000006
72 2 -2.0 13.777974000000006 1.9682820000000008 13.777974000000006
73 1 4.0 7.873128000000003 7.873128000000003 0.0
74 1 4.0 7.873128000000003 11.809692000000002 3.9365640000000015
75 1 4.0 11.809692000000002 7.873128000000003 3.9365640000000015
76 1 4.0 11.809692000000002 11.809692000000002 0.0
77 2 -2.0 9.841410000000003 9.841410000000003 5.904846000000001
78 2 -2.0 9.841410000000003 13.777974000000006 5.904846000000001
79 2 -2.0 9.841410000000003 13.777974000000006 1.9682820000000008
80 2 -2.0 9.841410000000003 9.841410000000003 1.9682820000000008
81 2 -2.0 13.777974000000006 9.841410000000003 1.9682820000000008
82 2 -2.0 13.777974000000006 13.777974000000006 1.9682820000000008
83 2 -2.0 13.777974000000006 13.777974000000006 5.904846000000001
84 2 -2.0 13.777974000000006 9.841410000000003 5.904846000000001
85 1 4.0 7.873128000000003 7.873128000000003 7.873128000000003
86 1 4.0 7.873128000000003 11.809692000000002 11.809692000000002
87 1 4.0 11.809692000000002 7.873128000000003 11.809692000000002
88 1 4.0 11.809692000000002 11.809692000000002 7.873128000000003
89 2 -2.0 9.841410000000003 9.841410000000003 13.777974000000006
90 2 -2.0 9.841410000000003 13.777974000000006 13.777974000000006
91 2 -2.0 9.841410000000003 13.777974000000006 9.841410000000003
92 2 -2.0 9.841410000000003 9.841410000000003 9.841410000000003
93 2 -2.0 13.777974000000006 9.841410000000003 9.841410000000003
94 2 -2.0 13.777974000000006 13.777974000000006 9.841410000000003
95 2 -2.0 13.777974000000006 13.777974000000006 13.777974000000006
96 2 -2.0 13.777974000000006 9.841410000000003 13.777974000000006
