 # "Ce32 O64"
  
          96  atoms
           2  atom types
 
0.0 13.996672000000004 xlo xhi
0.0 13.996672000000004 ylo yhi
0.0 13.996672000000004 zlo zhi
 
Masses
 
            1   140.11600000            # Ce
            2   15.99900000             # O
 
Atoms
 
1 1 4.0 0.0 0.0 0.0
2 1 4.0 0.0 3.499168000000001 3.499168000000001
3 1 4.0 3.499168000000001 0.0 3.499168000000001
4 1 4.0 3.499168000000001 3.499168000000001 0.0
5 2 -2.0 1.7495840000000005 1.7495840000000005 5.2487520000000005
6 2 -2.0 1.7495840000000005 5.2487520000000005 5.2487520000000005
7 2 -2.0 1.7495840000000005 5.2487520000000005 1.7495840000000005
8 2 -2.0 1.7495840000000005 1.7495840000000005 1.7495840000000005
9 2 -2.0 5.2487520000000005 1.7495840000000005 1.7495840000000005
10 2 -2.0 5.2487520000000005 5.2487520000000005 1.7495840000000005
11 2 -2.0 5.2487520000000005 5.2487520000000005 5.2487520000000005
12 2 -2.0 5.2487520000000005 1.7495840000000005 5.2487520000000005
13 1 4.0 0.0 0.0 6.998336000000002
14 1 4.0 0.0 3.499168000000001 10.497504000000001
15 1 4.0 3.499168000000001 13.996672000000004 10.497504000000001
16 1 4.0 3.499168000000001 3.499168000000001 6.998336000000002
17 2 -2.0 1.7495840000000005 1.7495840000000005 12.247088000000003
18 2 -2.0 1.7495840000000005 5.2487520000000005 12.247088000000003
19 2 -2.0 1.7495840000000005 5.2487520000000005 8.747920000000002
20 2 -2.0 1.7495840000000005 1.7495840000000005 8.747920000000002
21 2 -2.0 5.2487520000000005 1.7495840000000005 8.747920000000002
22 2 -2.0 5.2487520000000005 5.2487520000000005 8.747920000000002
23 2 -2.0 5.2487520000000005 5.2487520000000005 12.247088000000003
24 2 -2.0 5.2487520000000005 1.7495840000000005 12.247088000000003
25 1 4.0 0.0 6.998336000000002 0.0
26 1 4.0 0.0 10.497504000000001 3.499168000000001
27 1 4.0 3.499168000000001 6.998336000000002 3.499168000000001
28 1 4.0 3.499168000000001 10.497504000000001 0.0
29 2 -2.0 1.7495840000000005 8.747920000000002 5.2487520000000005
30 2 -2.0 1.7495840000000005 12.247088000000003 5.2487520000000005
31 2 -2.0 1.7495840000000005 12.247088000000003 1.7495840000000005
32 2 -2.0 1.7495840000000005 8.747920000000002 1.7495840000000005
33 2 -2.0 5.2487520000000005 8.747920000000002 1.7495840000000005
34 2 -2.0 5.2487520000000005 12.247088000000003 1.7495840000000005
35 2 -2.0 5.2487520000000005 12.247088000000003 5.2487520000000005
36 2 -2.0 5.2487520000000005 8.747920000000002 5.2487520000000005
37 1 4.0 0.0 6.998336000000002 6.998336000000002
38 1 4.0 0.0 10.497504000000001 10.497504000000001
39 1 4.0 3.499168000000001 6.998336000000002 10.497504000000001
40 1 4.0 3.499168000000001 10.497504000000001 6.998336000000002
41 2 -2.0 1.7495840000000005 8.747920000000002 12.247088000000003
42 2 -2.0 1.7495840000000005 12.247088000000003 12.247088000000003
43 2 -2.0 1.7495840000000005 12.247088000000003 8.747920000000002
44 2 -2.0 1.7495840000000005 8.747920000000002 8.747920000000002
45 2 -2.0 5.2487520000000005 8.747920000000002 8.747920000000002
46 2 -2.0 5.2487520000000005 12.247088000000003 8.747920000000002
47 2 -2.0 5.2487520000000005 12.247088000000003 12.247088000000003
48 2 -2.0 5.2487520000000005 8.747920000000002 12.247088000000003
49 1 4.0 6.998336000000002 0.0 0.0
50 1 4.0 6.998336000000002 3.499168000000001 3.499168000000001
51 1 4.0 10.497504000000001 0.0 3.499168000000001
52 1 4.0 10.497504000000001 3.499168000000001 0.0
53 2 -2.0 8.747920000000002 1.7495840000000005 5.2487520000000005
54 2 -2.0 8.747920000000002 5.2487520000000005 5.2487520000000005
55 2 -2.0 8.747920000000002 5.2487520000000005 1.7495840000000005
56 2 -2.0 8.747920000000002 1.7495840000000005 1.7495840000000005
57 2 -2.0 12.247088000000003 1.7495840000000005 1.7495840000000005
58 2 -2.0 12.247088000000003 5.2487520000000005 1.7495840000000005
59 2 -2.0 12.247088000000003 5.2487520000000005 5.2487520000000005
60 2 -2.0 12.247088000000003 1.7495840000000005 5.2487520000000005
61 1 4.0 6.998336000000002 0.0 6.998336000000002
62 1 4.0 6.998336000000002 3.499168000000001 10.497504000000001
63 1 4.0 10.497504000000001 13.996672000000004 10.497504000000001
64 1 4.0 10.497504000000001 3.499168000000001 6.998336000000002
65 2 -2.0 8.747920000000002 1.7495840000000005 12.247088000000003
66 2 -2.0 8.747920000000002 5.2487520000000005 12.247088000000003
67 2 -2.0 8.747920000000002 5.2487520000000005 8.747920000000002
68 2 -2.0 8.747920000000002 1.7495840000000005 8.747920000000002
69 2 -2.0 12.247088000000003 1.7495840000000005 8.747920000000002
70 2 -2.0 12.247088000000003 5.2487520000000005 8.747920000000002
71 2 -2.0 12.247088000000003 5.2487520000000005 12.247088000000003
72 2 -2.0 12.247088000000003 1.7495840000000005 12.247088000000003
73 1 4.0 6.998336000000002 6.998336000000002 0.0
74 1 4.0 6.998336000000002 10.497504000000001 3.499168000000001
75 1 4.0 10.497504000000001 6.998336000000002 3.499168000000001
76 1 4.0 10.497504000000001 10.497504000000001 0.0
77 2 -2.0 8.747920000000002 8.747920000000002 5.2487520000000005
78 2 -2.0 8.747920000000002 12.247088000000003 5.2487520000000005
79 2 -2.0 8.747920000000002 12.247088000000003 1.7495840000000005
80 2 -2.0 8.747920000000002 8.747920000000002 1.7495840000000005
81 2 -2.0 12.247088000000003 8.747920000000002 1.7495840000000005
82 2 -2.0 12.247088000000003 12.247088000000003 1.7495840000000005
83 2 -2.0 12.247088000000003 12.247088000000003 5.2487520000000005
84 2 -2.0 12.247088000000003 8.747920000000002 5.2487520000000005
85 1 4.0 6.998336000000002 6.998336000000002 6.998336000000002
86 1 4.0 6.998336000000002 10.497504000000001 10.497504000000001
87 1 4.0 10.497504000000001 6.998336000000002 10.497504000000001
88 1 4.0 10.497504000000001 10.497504000000001 6.998336000000002
89 2 -2.0 8.747920000000002 8.747920000000002 12.247088000000003
90 2 -2.0 8.747920000000002 12.247088000000003 12.247088000000003
91 2 -2.0 8.747920000000002 12.247088000000003 8.747920000000002
92 2 -2.0 8.747920000000002 8.747920000000002 8.747920000000002
93 2 -2.0 12.247088000000003 8.747920000000002 8.747920000000002
94 2 -2.0 12.247088000000003 12.247088000000003 8.747920000000002
95 2 -2.0 12.247088000000003 12.247088000000003 12.247088000000003
96 2 -2.0 12.247088000000003 8.747920000000002 12.247088000000003
