 # "Ce32 O64"
  
          96  atoms
           2  atom types
 
0.0 12.028390000000002 xlo xhi
0.0 12.028390000000002 ylo yhi
0.0 12.028390000000002 zlo zhi
 
Masses
 
            1   140.11600000            # Ce
            2   15.99900000             # O
 
Atoms
 
1 1 4.0 0.0 0.0 0.0
2 1 4.0 0.0 3.0070975000000004 3.0070975000000004
3 1 4.0 3.0070975000000004 0.0 3.0070975000000004
4 1 4.0 3.0070975000000004 3.0070975000000004 0.0
5 2 -2.0 1.5035487500000002 1.5035487500000002 4.51064625
6 2 -2.0 1.5035487500000002 4.51064625 4.51064625
7 2 -2.0 1.5035487500000002 4.51064625 1.5035487500000002
8 2 -2.0 1.5035487500000002 1.5035487500000002 1.5035487500000002
9 2 -2.0 4.51064625 1.5035487500000002 1.5035487500000002
10 2 -2.0 4.51064625 4.51064625 1.5035487500000002
11 2 -2.0 4.51064625 4.51064625 4.51064625
12 2 -2.0 4.51064625 1.5035487500000002 4.51064625
13 1 4.0 0.0 0.0 6.014195000000001
14 1 4.0 0.0 3.0070975000000004 9.0212925
15 1 4.0 3.0070975000000004 12.028390000000002 9.0212925
16 1 4.0 3.0070975000000004 3.0070975000000004 6.014195000000001
17 2 -2.0 1.5035487500000002 1.5035487500000002 10.524841250000001
18 2 -2.0 1.5035487500000002 4.51064625 10.524841250000001
19 2 -2.0 1.5035487500000002 4.51064625 7.517743750000001
20 2 -2.0 1.5035487500000002 1.5035487500000002 7.517743750000001
21 2 -2.0 4.51064625 1.5035487500000002 7.517743750000001
22 2 -2.0 4.51064625 4.51064625 7.517743750000001
23 2 -2.0 4.51064625 4.51064625 10.524841250000001
24 2 -2.0 4.51064625 1.5035487500000002 10.524841250000001
25 1 4.0 0.0 6.014195000000001 0.0
26 1 4.0 0.0 9.0212925 3.0070975000000004
27 1 4.0 3.0070975000000004 6.014195000000001 3.0070975000000004
28 1 4.0 3.0070975000000004 9.0212925 0.0
29 2 -2.0 1.5035487500000002 7.517743750000001 4.51064625
30 2 -2.0 1.5035487500000002 10.524841250000001 4.51064625
31 2 -2.0 1.5035487500000002 10.524841250000001 1.5035487500000002
32 2 -2.0 1.5035487500000002 7.517743750000001 1.5035487500000002
33 2 -2.0 4.51064625 7.517743750000001 1.5035487500000002
34 2 -2.0 4.51064625 10.524841250000001 1.5035487500000002
35 2 -2.0 4.51064625 10.524841250000001 4.51064625
36 2 -2.0 4.51064625 7.517743750000001 4.51064625
37 1 4.0 0.0 6.014195000000001 6.014195000000001
38 1 4.0 0.0 9.0212925 9.0212925
39 1 4.0 3.0070975000000004 6.014195000000001 9.0212925
40 1 4.0 3.0070975000000004 9.0212925 6.014195000000001
41 2 -2.0 1.5035487500000002 7.517743750000001 10.524841250000001
42 2 -2.0 1.5035487500000002 10.524841250000001 10.524841250000001
43 2 -2.0 1.5035487500000002 10.524841250000001 7.517743750000001
44 2 -2.0 1.5035487500000002 7.517743750000001 7.517743750000001
45 2 -2.0 4.51064625 7.517743750000001 7.517743750000001
46 2 -2.0 4.51064625 10.524841250000001 7.517743750000001
47 2 -2.0 4.51064625 10.524841250000001 10.524841250000001
48 2 -2.0 4.51064625 7.517743750000001 10.524841250000001
49 1 4.0 6.014195000000001 0.0 0.0
50 1 4.0 6.014195000000001 3.0070975000000004 3.0070975000000004
51 1 4.0 9.0212925 0.0 3.0070975000000004
52 1 4.0 9.0212925 3.0070975000000004 0.0
53 2 -2.0 7.517743750000001 1.5035487500000002 4.51064625
54 2 -2.0 7.517743750000001 4.51064625 4.51064625
55 2 -2.0 7.517743750000001 4.51064625 1.5035487500000002
56 2 -2.0 7.517743750000001 1.5035487500000002 1.5035487500000002
57 2 -2.0 10.524841250000001 1.5035487500000002 1.5035487500000002
58 2 -2.0 10.524841250000001 4.51064625 1.5035487500000002
59 2 -2.0 10.524841250000001 4.51064625 4.51064625
60 2 -2.0 10.524841250000001 1.5035487500000002 4.51064625
61 1 4.0 6.014195000000001 0.0 6.014195000000001
62 1 4.0 6.014195000000001 3.0070975000000004 9.0212925
63 1 4.0 9.0212925 12.028390000000002 9.0212925
64 1 4.0 9.0212925 3.0070975000000004 6.014195000000001
65 2 -2.0 7.517743750000001 1.5035487500000002 10.524841250000001
66 2 -2.0 7.517743750000001 4.51064625 10.524841250000001
67 2 -2.0 7.517743750000001 4.51064625 7.517743750000001
68 2 -2.0 7.517743750000001 1.5035487500000002 7.517743750000001
69 2 -2.0 10.524841250000001 1.5035487500000002 7.517743750000001
70 2 -2.0 10.524841250000001 4.51064625 7.517743750000001
71 2 -2.0 10.524841250000001 4.51064625 10.524841250000001
72 2 -2.0 10.524841250000001 1.5035487500000002 10.524841250000001
73 1 4.0 6.014195000000001 6.014195000000001 0.0
74 1 4.0 6.014195000000001 9.0212925 3.0070975000000004
75 1 4.0 9.0212925 6.014195000000001 3.0070975000000004
76 1 4.0 9.0212925 9.0212925 0.0
77 2 -2.0 7.517743750000001 7.517743750000001 4.51064625
78 2 -2.0 7.517743750000001 10.524841250000001 4.51064625
79 2 -2.0 7.517743750000001 10.524841250000001 1.5035487500000002
80 2 -2.0 7.517743750000001 7.517743750000001 1.5035487500000002
81 2 -2.0 10.524841250000001 7.517743750000001 1.5035487500000002
82 2 -2.0 10.524841250000001 10.524841250000001 1.5035487500000002
83 2 -2.0 10.524841250000001 10.524841250000001 4.51064625
84 2 -2.0 10.524841250000001 7.517743750000001 4.51064625
85 1 4.0 6.014195000000001 6.014195000000001 6.014195000000001
86 1 4.0 6.014195000000001 9.0212925 9.0212925
87 1 4.0 9.0212925 6.014195000000001 9.0212925
88 1 4.0 9.0212925 9.0212925 6.014195000000001
89 2 -2.0 7.517743750000001 7.517743750000001 10.524841250000001
90 2 -2.0 7.517743750000001 10.524841250000001 10.524841250000001
91 2 -2.0 7.517743750000001 10.524841250000001 7.517743750000001
92 2 -2.0 7.517743750000001 7.517743750000001 7.517743750000001
93 2 -2.0 10.524841250000001 7.517743750000001 7.517743750000001
94 2 -2.0 10.524841250000001 10.524841250000001 7.517743750000001
95 2 -2.0 10.524841250000001 10.524841250000001 10.524841250000001
96 2 -2.0 10.524841250000001 7.517743750000001 10.524841250000001
