 # "Ce32 O64"
  
          96  atoms
           2  atom types
 
0.0 17.714538000000008 xlo xhi
0.0 17.714538000000008 ylo yhi
0.0 17.714538000000008 zlo zhi
 
Masses
 
            1   140.11600000            # Ce
            2   15.99900000             # O
 
Atoms
 
1 1 4.0 0.0 0.0 0.0
2 1 4.0 0.0 4.428634500000002 4.428634500000002
3 1 4.0 4.428634500000002 0.0 4.428634500000002
4 1 4.0 4.428634500000002 4.428634500000002 0.0
5 2 -2.0 2.214317250000001 2.214317250000001 6.642951750000002
6 2 -2.0 2.214317250000001 6.642951750000002 6.642951750000002
7 2 -2.0 2.214317250000001 6.642951750000002 2.214317250000001
8 2 -2.0 2.214317250000001 2.214317250000001 2.214317250000001
9 2 -2.0 6.642951750000002 2.214317250000001 2.214317250000001
10 2 -2.0 6.642951750000002 6.642951750000002 2.214317250000001
11 2 -2.0 6.642951750000002 6.642951750000002 6.642951750000002
12 2 -2.0 6.642951750000002 2.214317250000001 6.642951750000002
13 1 4.0 0.0 0.0 8.857269000000004
14 1 4.0 0.0 4.428634500000002 13.285903500000003
15 1 4.0 4.428634500000002 17.714538000000008 13.285903500000003
16 1 4.0 4.428634500000002 4.428634500000002 8.857269000000004
17 2 -2.0 2.214317250000001 2.214317250000001 15.500220750000008
18 2 -2.0 2.214317250000001 6.642951750000002 15.500220750000008
19 2 -2.0 2.214317250000001 6.642951750000002 11.071586250000005
20 2 -2.0 2.214317250000001 2.214317250000001 11.071586250000005
21 2 -2.0 6.642951750000002 2.214317250000001 11.071586250000005
22 2 -2.0 6.642951750000002 6.642951750000002 11.071586250000005
23 2 -2.0 6.642951750000002 6.642951750000002 15.500220750000008
24 2 -2.0 6.642951750000002 2.214317250000001 15.500220750000008
25 1 4.0 0.0 8.857269000000004 0.0
26 1 4.0 0.0 13.285903500000003 4.428634500000002
27 1 4.0 4.428634500000002 8.857269000000004 4.428634500000002
28 1 4.0 4.428634500000002 13.285903500000003 0.0
29 2 -2.0 2.214317250000001 11.071586250000005 6.642951750000002
30 2 -2.0 2.214317250000001 15.500220750000008 6.642951750000002
31 2 -2.0 2.214317250000001 15.500220750000008 2.214317250000001
32 2 -2.0 2.214317250000001 11.071586250000005 2.214317250000001
33 2 -2.0 6.642951750000002 11.071586250000005 2.214317250000001
34 2 -2.0 6.642951750000002 15.500220750000008 2.214317250000001
35 2 -2.0 6.642951750000002 15.500220750000008 6.642951750000002
36 2 -2.0 6.642951750000002 11.071586250000005 6.642951750000002
37 1 4.0 0.0 8.857269000000004 8.857269000000004
38 1 4.0 0.0 13.285903500000003 13.285903500000003
39 1 4.0 4.428634500000002 8.857269000000004 13.285903500000003
40 1 4.0 4.428634500000002 13.285903500000003 8.857269000000004
41 2 -2.0 2.214317250000001 11.071586250000005 15.500220750000008
42 2 -2.0 2.214317250000001 15.500220750000008 15.500220750000008
43 2 -2.0 2.214317250000001 15.500220750000008 11.071586250000005
44 2 -2.0 2.214317250000001 11.071586250000005 11.071586250000005
45 2 -2.0 6.642951750000002 11.071586250000005 11.071586250000005
46 2 -2.0 6.642951750000002 15.500220750000008 11.071586250000005
47 2 -2.0 6.642951750000002 15.500220750000008 15.500220750000008
48 2 -2.0 6.642951750000002 11.071586250000005 15.500220750000008
49 1 4.0 8.857269000000004 0.0 0.0
50 1 4.0 8.857269000000004 4.428634500000002 4.428634500000002
51 1 4.0 13.285903500000003 0.0 4.428634500000002
52 1 4.0 13.285903500000003 4.428634500000002 0.0
53 2 -2.0 11.071586250000005 2.214317250000001 6.642951750000002
54 2 -2.0 11.071586250000005 6.642951750000002 6.642951750000002
55 2 -2.0 11.071586250000005 6.642951750000002 2.214317250000001
56 2 -2.0 11.071586250000005 2.214317250000001 2.214317250000001
57 2 -2.0 15.500220750000008 2.214317250000001 2.214317250000001
58 2 -2.0 15.500220750000008 6.642951750000002 2.214317250000001
59 2 -2.0 15.500220750000008 6.642951750000002 6.642951750000002
60 2 -2.0 15.500220750000008 2.214317250000001 6.642951750000002
61 1 4.0 8.857269000000004 0.0 8.857269000000004
62 1 4.0 8.857269000000004 4.428634500000002 13.285903500000003
63 1 4.0 13.285903500000003 17.714538000000008 13.285903500000003
64 1 4.0 13.285903500000003 4.428634500000002 8.857269000000004
65 2 -2.0 11.071586250000005 2.214317250000001 15.500220750000008
66 2 -2.0 11.071586250000005 6.642951750000002 15.500220750000008
67 2 -2.0 11.071586250000005 6.642951750000002 11.071586250000005
68 2 -2.0 11.071586250000005 2.214317250000001 11.071586250000005
69 2 -2.0 15.500220750000008 2.214317250000001 11.071586250000005
70 2 -2.0 15.500220750000008 6.642951750000002 11.071586250000005
71 2 -2.0 15.500220750000008 6.642951750000002 15.500220750000008
72 2 -2.0 15.500220750000008 2.214317250000001 15.500220750000008
73 1 4.0 8.857269000000004 8.857269000000004 0.0
74 1 4.0 8.857269000000004 13.285903500000003 4.428634500000002
75 1 4.0 13.285903500000003 8.857269000000004 4.428634500000002
76 1 4.0 13.285903500000003 13.285903500000003 0.0
77 2 -2.0 11.071586250000005 11.071586250000005 6.642951750000002
78 2 -2.0 11.071586250000005 15.500220750000008 6.642951750000002
79 2 -2.0 11.071586250000005 15.500220750000008 2.214317250000001
80 2 -2.0 11.071586250000005 11.071586250000005 2.214317250000001
81 2 -2.0 15.500220750000008 11.071586250000005 2.214317250000001
82 2 -2.0 15.500220750000008 15.500220750000008 2.214317250000001
83 2 -2.0 15.500220750000008 15.500220750000008 6.642951750000002
84 2 -2.0 15.500220750000008 11.071586250000005 6.642951750000002
85 1 4.0 8.857269000000004 8.857269000000004 8.857269000000004
86 1 4.0 8.857269000000004 13.285903500000003 13.285903500000003
87 1 4.0 13.285903500000003 8.857269000000004 13.285903500000003
88 1 4.0 13.285903500000003 13.285903500000003 8.857269000000004
89 2 -2.0 11.071586250000005 11.071586250000005 15.500220750000008
90 2 -2.0 11.071586250000005 15.500220750000008 15.500220750000008
91 2 -2.0 11.071586250000005 15.500220750000008 11.071586250000005
92 2 -2.0 11.071586250000005 11.071586250000005 11.071586250000005
93 2 -2.0 15.500220750000008 11.071586250000005 11.071586250000005
94 2 -2.0 15.500220750000008 15.500220750000008 11.071586250000005
95 2 -2.0 15.500220750000008 15.500220750000008 15.500220750000008
96 2 -2.0 15.500220750000008 11.071586250000005 15.500220750000008
