 # "Ce32 O64"
  
          96  atoms
           2  atom types
 
0.0 17.823887000000006 xlo xhi
0.0 17.823887000000006 ylo yhi
0.0 17.823887000000006 zlo zhi
 
Masses
 
            1   140.11600000            # Ce
            2   15.99900000             # O
 
Atoms
 
1 1 4.0 0.0 0.0 0.0
2 1 4.0 0.0 4.455971750000002 4.455971750000002
3 1 4.0 4.455971750000002 0.0 4.455971750000002
4 1 4.0 4.455971750000002 4.455971750000002 0.0
5 2 -2.0 2.227985875000001 2.227985875000001 6.6839576250000015
6 2 -2.0 2.227985875000001 6.6839576250000015 6.6839576250000015
7 2 -2.0 2.227985875000001 6.6839576250000015 2.227985875000001
8 2 -2.0 2.227985875000001 2.227985875000001 2.227985875000001
9 2 -2.0 6.6839576250000015 2.227985875000001 2.227985875000001
10 2 -2.0 6.6839576250000015 6.6839576250000015 2.227985875000001
11 2 -2.0 6.6839576250000015 6.6839576250000015 6.6839576250000015
12 2 -2.0 6.6839576250000015 2.227985875000001 6.6839576250000015
13 1 4.0 0.0 0.0 8.911943500000003
14 1 4.0 0.0 4.455971750000002 13.367915250000003
15 1 4.0 4.455971750000002 17.823887000000006 13.367915250000003
16 1 4.0 4.455971750000002 4.455971750000002 8.911943500000003
17 2 -2.0 2.227985875000001 2.227985875000001 15.595901125000006
18 2 -2.0 2.227985875000001 6.6839576250000015 15.595901125000006
19 2 -2.0 2.227985875000001 6.6839576250000015 11.139929375000005
20 2 -2.0 2.227985875000001 2.227985875000001 11.139929375000005
21 2 -2.0 6.6839576250000015 2.227985875000001 11.139929375000005
22 2 -2.0 6.6839576250000015 6.6839576250000015 11.139929375000005
23 2 -2.0 6.6839576250000015 6.6839576250000015 15.595901125000006
24 2 -2.0 6.6839576250000015 2.227985875000001 15.595901125000006
25 1 4.0 0.0 8.911943500000003 0.0
26 1 4.0 0.0 13.367915250000003 4.455971750000002
27 1 4.0 4.455971750000002 8.911943500000003 4.455971750000002
28 1 4.0 4.455971750000002 13.367915250000003 0.0
29 2 -2.0 2.227985875000001 11.139929375000005 6.6839576250000015
30 2 -2.0 2.227985875000001 15.595901125000006 6.6839576250000015
31 2 -2.0 2.227985875000001 15.595901125000006 2.227985875000001
32 2 -2.0 2.227985875000001 11.139929375000005 2.227985875000001
33 2 -2.0 6.6839576250000015 11.139929375000005 2.227985875000001
34 2 -2.0 6.6839576250000015 15.595901125000006 2.227985875000001
35 2 -2.0 6.6839576250000015 15.595901125000006 6.6839576250000015
36 2 -2.0 6.6839576250000015 11.139929375000005 6.6839576250000015
37 1 4.0 0.0 8.911943500000003 8.911943500000003
38 1 4.0 0.0 13.367915250000003 13.367915250000003
39 1 4.0 4.455971750000002 8.911943500000003 13.367915250000003
40 1 4.0 4.455971750000002 13.367915250000003 8.911943500000003
41 2 -2.0 2.227985875000001 11.139929375000005 15.595901125000006
42 2 -2.0 2.227985875000001 15.595901125000006 15.595901125000006
43 2 -2.0 2.227985875000001 15.595901125000006 11.139929375000005
44 2 -2.0 2.227985875000001 11.139929375000005 11.139929375000005
45 2 -2.0 6.6839576250000015 11.139929375000005 11.139929375000005
46 2 -2.0 6.6839576250000015 15.595901125000006 11.139929375000005
47 2 -2.0 6.6839576250000015 15.595901125000006 15.595901125000006
48 2 -2.0 6.6839576250000015 11.139929375000005 15.595901125000006
49 1 4.0 8.911943500000003 0.0 0.0
50 1 4.0 8.911943500000003 4.455971750000002 4.455971750000002
51 1 4.0 13.367915250000003 0.0 4.455971750000002
52 1 4.0 13.367915250000003 4.455971750000002 0.0
53 2 -2.0 11.139929375000005 2.227985875000001 6.6839576250000015
54 2 -2.0 11.139929375000005 6.6839576250000015 6.6839576250000015
55 2 -2.0 11.139929375000005 6.6839576250000015 2.227985875000001
56 2 -2.0 11.139929375000005 2.227985875000001 2.227985875000001
57 2 -2.0 15.595901125000006 2.227985875000001 2.227985875000001
58 2 -2.0 15.595901125000006 6.6839576250000015 2.227985875000001
59 2 -2.0 15.595901125000006 6.6839576250000015 6.6839576250000015
60 2 -2.0 15.595901125000006 2.227985875000001 6.6839576250000015
61 1 4.0 8.911943500000003 0.0 8.911943500000003
62 1 4.0 8.911943500000003 4.455971750000002 13.367915250000003
63 1 4.0 13.367915250000003 17.823887000000006 13.367915250000003
64 1 4.0 13.367915250000003 4.455971750000002 8.911943500000003
65 2 -2.0 11.139929375000005 2.227985875000001 15.595901125000006
66 2 -2.0 11.139929375000005 6.6839576250000015 15.595901125000006
67 2 -2.0 11.139929375000005 6.6839576250000015 11.139929375000005
68 2 -2.0 11.139929375000005 2.227985875000001 11.139929375000005
69 2 -2.0 15.595901125000006 2.227985875000001 11.139929375000005
70 2 -2.0 15.595901125000006 6.6839576250000015 11.139929375000005
71 2 -2.0 15.595901125000006 6.6839576250000015 15.595901125000006
72 2 -2.0 15.595901125000006 2.227985875000001 15.595901125000006
73 1 4.0 8.911943500000003 8.911943500000003 0.0
74 1 4.0 8.911943500000003 13.367915250000003 4.455971750000002
75 1 4.0 13.367915250000003 8.911943500000003 4.455971750000002
76 1 4.0 13.367915250000003 13.367915250000003 0.0
77 2 -2.0 11.139929375000005 11.139929375000005 6.6839576250000015
78 2 -2.0 11.139929375000005 15.595901125000006 6.6839576250000015
79 2 -2.0 11.139929375000005 15.595901125000006 2.227985875000001
80 2 -2.0 11.139929375000005 11.139929375000005 2.227985875000001
81 2 -2.0 15.595901125000006 11.139929375000005 2.227985875000001
82 2 -2.0 15.595901125000006 15.595901125000006 2.227985875000001
83 2 -2.0 15.595901125000006 15.595901125000006 6.6839576250000015
84 2 -2.0 15.595901125000006 11.139929375000005 6.6839576250000015
85 1 4.0 8.911943500000003 8.911943500000003 8.911943500000003
86 1 4.0 8.911943500000003 13.367915250000003 13.367915250000003
87 1 4.0 13.367915250000003 8.911943500000003 13.367915250000003
88 1 4.0 13.367915250000003 13.367915250000003 8.911943500000003
89 2 -2.0 11.139929375000005 11.139929375000005 15.595901125000006
90 2 -2.0 11.139929375000005 15.595901125000006 15.595901125000006
91 2 -2.0 11.139929375000005 15.595901125000006 11.139929375000005
92 2 -2.0 11.139929375000005 11.139929375000005 11.139929375000005
93 2 -2.0 15.595901125000006 11.139929375000005 11.139929375000005
94 2 -2.0 15.595901125000006 15.595901125000006 11.139929375000005
95 2 -2.0 15.595901125000006 15.595901125000006 15.595901125000006
96 2 -2.0 15.595901125000006 11.139929375000005 15.595901125000006
