 # "Ce32 O64"
  
          96  atoms
           2  atom types
 
0.0 15.527558000000004 xlo xhi
0.0 15.527558000000004 ylo yhi
0.0 15.527558000000004 zlo zhi
 
Masses
 
            1   140.11600000            # Ce
            2   15.99900000             # O
 
Atoms
 
1 1 4.0 0.0 0.0 0.0
2 1 4.0 0.0 3.881889500000001 3.881889500000001
3 1 4.0 3.881889500000001 0.0 3.881889500000001
4 1 4.0 3.881889500000001 3.881889500000001 0.0
5 2 -2.0 1.9409447500000006 1.9409447500000006 5.8228342500000005
6 2 -2.0 1.9409447500000006 5.8228342500000005 5.8228342500000005
7 2 -2.0 1.9409447500000006 5.8228342500000005 1.9409447500000006
8 2 -2.0 1.9409447500000006 1.9409447500000006 1.9409447500000006
9 2 -2.0 5.8228342500000005 1.9409447500000006 1.9409447500000006
10 2 -2.0 5.8228342500000005 5.8228342500000005 1.9409447500000006
11 2 -2.0 5.8228342500000005 5.8228342500000005 5.8228342500000005
12 2 -2.0 5.8228342500000005 1.9409447500000006 5.8228342500000005
13 1 4.0 0.0 0.0 7.763779000000002
14 1 4.0 0.0 3.881889500000001 11.645668500000001
15 1 4.0 3.881889500000001 15.527558000000004 11.645668500000001
16 1 4.0 3.881889500000001 3.881889500000001 7.763779000000002
17 2 -2.0 1.9409447500000006 1.9409447500000006 13.586613250000005
18 2 -2.0 1.9409447500000006 5.8228342500000005 13.586613250000005
19 2 -2.0 1.9409447500000006 5.8228342500000005 9.704723750000003
20 2 -2.0 1.9409447500000006 1.9409447500000006 9.704723750000003
21 2 -2.0 5.8228342500000005 1.9409447500000006 9.704723750000003
22 2 -2.0 5.8228342500000005 5.8228342500000005 9.704723750000003
23 2 -2.0 5.8228342500000005 5.8228342500000005 13.586613250000005
24 2 -2.0 5.8228342500000005 1.9409447500000006 13.586613250000005
25 1 4.0 0.0 7.763779000000002 0.0
26 1 4.0 0.0 11.645668500000001 3.881889500000001
27 1 4.0 3.881889500000001 7.763779000000002 3.881889500000001
28 1 4.0 3.881889500000001 11.645668500000001 0.0
29 2 -2.0 1.9409447500000006 9.704723750000003 5.8228342500000005
30 2 -2.0 1.9409447500000006 13.586613250000005 5.8228342500000005
31 2 -2.0 1.9409447500000006 13.586613250000005 1.9409447500000006
32 2 -2.0 1.9409447500000006 9.704723750000003 1.9409447500000006
33 2 -2.0 5.8228342500000005 9.704723750000003 1.9409447500000006
34 2 -2.0 5.8228342500000005 13.586613250000005 1.9409447500000006
35 2 -2.0 5.8228342500000005 13.586613250000005 5.8228342500000005
36 2 -2.0 5.8228342500000005 9.704723750000003 5.8228342500000005
37 1 4.0 0.0 7.763779000000002 7.763779000000002
38 1 4.0 0.0 11.645668500000001 11.645668500000001
39 1 4.0 3.881889500000001 7.763779000000002 11.645668500000001
40 1 4.0 3.881889500000001 11.645668500000001 7.763779000000002
41 2 -2.0 1.9409447500000006 9.704723750000003 13.586613250000005
42 2 -2.0 1.9409447500000006 13.586613250000005 13.586613250000005
43 2 -2.0 1.9409447500000006 13.586613250000005 9.704723750000003
44 2 -2.0 1.9409447500000006 9.704723750000003 9.704723750000003
45 2 -2.0 5.8228342500000005 9.704723750000003 9.704723750000003
46 2 -2.0 5.8228342500000005 13.586613250000005 9.704723750000003
47 2 -2.0 5.8228342500000005 13.586613250000005 13.586613250000005
48 2 -2.0 5.8228342500000005 9.704723750000003 13.586613250000005
49 1 4.0 7.763779000000002 0.0 0.0
50 1 4.0 7.763779000000002 3.881889500000001 3.881889500000001
51 1 4.0 11.645668500000001 0.0 3.881889500000001
52 1 4.0 11.645668500000001 3.881889500000001 0.0
53 2 -2.0 9.704723750000003 1.9409447500000006 5.8228342500000005
54 2 -2.0 9.704723750000003 5.8228342500000005 5.8228342500000005
55 2 -2.0 9.704723750000003 5.8228342500000005 1.9409447500000006
56 2 -2.0 9.704723750000003 1.9409447500000006 1.9409447500000006
57 2 -2.0 13.586613250000005 1.9409447500000006 1.9409447500000006
58 2 -2.0 13.586613250000005 5.8228342500000005 1.9409447500000006
59 2 -2.0 13.586613250000005 5.8228342500000005 5.8228342500000005
60 2 -2.0 13.586613250000005 1.9409447500000006 5.8228342500000005
61 1 4.0 7.763779000000002 0.0 7.763779000000002
62 1 4.0 7.763779000000002 3.881889500000001 11.645668500000001
63 1 4.0 11.645668500000001 15.527558000000004 11.645668500000001
64 1 4.0 11.645668500000001 3.881889500000001 7.763779000000002
65 2 -2.0 9.704723750000003 1.9409447500000006 13.586613250000005
66 2 -2.0 9.704723750000003 5.8228342500000005 13.586613250000005
67 2 -2.0 9.704723750000003 5.8228342500000005 9.704723750000003
68 2 -2.0 9.704723750000003 1.9409447500000006 9.704723750000003
69 2 -2.0 13.586613250000005 1.9409447500000006 9.704723750000003
70 2 -2.0 13.586613250000005 5.8228342500000005 9.704723750000003
71 2 -2.0 13.586613250000005 5.8228342500000005 13.586613250000005
72 2 -2.0 13.586613250000005 1.9409447500000006 13.586613250000005
73 1 4.0 7.763779000000002 7.763779000000002 0.0
74 1 4.0 7.763779000000002 11.645668500000001 3.881889500000001
75 1 4.0 11.645668500000001 7.763779000000002 3.881889500000001
76 1 4.0 11.645668500000001 11.645668500000001 0.0
77 2 -2.0 9.704723750000003 9.704723750000003 5.8228342500000005
78 2 -2.0 9.704723750000003 13.586613250000005 5.8228342500000005
79 2 -2.0 9.704723750000003 13.586613250000005 1.9409447500000006
80 2 -2.0 9.704723750000003 9.704723750000003 1.9409447500000006
81 2 -2.0 13.586613250000005 9.704723750000003 1.9409447500000006
82 2 -2.0 13.586613250000005 13.586613250000005 1.9409447500000006
83 2 -2.0 13.586613250000005 13.586613250000005 5.8228342500000005
84 2 -2.0 13.586613250000005 9.704723750000003 5.8228342500000005
85 1 4.0 7.763779000000002 7.763779000000002 7.763779000000002
86 1 4.0 7.763779000000002 11.645668500000001 11.645668500000001
87 1 4.0 11.645668500000001 7.763779000000002 11.645668500000001
88 1 4.0 11.645668500000001 11.645668500000001 7.763779000000002
89 2 -2.0 9.704723750000003 9.704723750000003 13.586613250000005
90 2 -2.0 9.704723750000003 13.586613250000005 13.586613250000005
91 2 -2.0 9.704723750000003 13.586613250000005 9.704723750000003
92 2 -2.0 9.704723750000003 9.704723750000003 9.704723750000003
93 2 -2.0 13.586613250000005 9.704723750000003 9.704723750000003
94 2 -2.0 13.586613250000005 13.586613250000005 9.704723750000003
95 2 -2.0 13.586613250000005 13.586613250000005 13.586613250000005
96 2 -2.0 13.586613250000005 9.704723750000003 13.586613250000005
