 # "Ce32 O64"
  
          96  atoms
           2  atom types
 
0.0 13.231229000000003 xlo xhi
0.0 13.231229000000003 ylo yhi
0.0 13.231229000000003 zlo zhi
 
Masses
 
            1   140.11600000            # Ce
            2   15.99900000             # O
 
Atoms
 
1 1 4.0 0.0 0.0 0.0
2 1 4.0 0.0 3.3078072500000006 3.3078072500000006
3 1 4.0 3.3078072500000006 0.0 3.3078072500000006
4 1 4.0 3.3078072500000006 3.3078072500000006 0.0
5 2 -2.0 1.6539036250000003 1.6539036250000003 4.9617108750000005
6 2 -2.0 1.6539036250000003 4.9617108750000005 4.9617108750000005
7 2 -2.0 1.6539036250000003 4.9617108750000005 1.6539036250000003
8 2 -2.0 1.6539036250000003 1.6539036250000003 1.6539036250000003
9 2 -2.0 4.9617108750000005 1.6539036250000003 1.6539036250000003
10 2 -2.0 4.9617108750000005 4.9617108750000005 1.6539036250000003
11 2 -2.0 4.9617108750000005 4.9617108750000005 4.9617108750000005
12 2 -2.0 4.9617108750000005 1.6539036250000003 4.9617108750000005
13 1 4.0 0.0 0.0 6.615614500000001
14 1 4.0 0.0 3.3078072500000006 9.923421750000001
15 1 4.0 3.3078072500000006 13.231229000000003 9.923421750000001
16 1 4.0 3.3078072500000006 3.3078072500000006 6.615614500000001
17 2 -2.0 1.6539036250000003 1.6539036250000003 11.577325375000003
18 2 -2.0 1.6539036250000003 4.9617108750000005 11.577325375000003
19 2 -2.0 1.6539036250000003 4.9617108750000005 8.269518125000001
20 2 -2.0 1.6539036250000003 1.6539036250000003 8.269518125000001
21 2 -2.0 4.9617108750000005 1.6539036250000003 8.269518125000001
22 2 -2.0 4.9617108750000005 4.9617108750000005 8.269518125000001
23 2 -2.0 4.9617108750000005 4.9617108750000005 11.577325375000003
24 2 -2.0 4.9617108750000005 1.6539036250000003 11.577325375000003
25 1 4.0 0.0 6.615614500000001 0.0
26 1 4.0 0.0 9.923421750000001 3.3078072500000006
27 1 4.0 3.3078072500000006 6.615614500000001 3.3078072500000006
28 1 4.0 3.3078072500000006 9.923421750000001 0.0
29 2 -2.0 1.6539036250000003 8.269518125000001 4.9617108750000005
30 2 -2.0 1.6539036250000003 11.577325375000003 4.9617108750000005
31 2 -2.0 1.6539036250000003 11.577325375000003 1.6539036250000003
32 2 -2.0 1.6539036250000003 8.269518125000001 1.6539036250000003
33 2 -2.0 4.9617108750000005 8.269518125000001 1.6539036250000003
34 2 -2.0 4.9617108750000005 11.577325375000003 1.6539036250000003
35 2 -2.0 4.9617108750000005 11.577325375000003 4.9617108750000005
36 2 -2.0 4.9617108750000005 8.269518125000001 4.9617108750000005
37 1 4.0 0.0 6.615614500000001 6.615614500000001
38 1 4.0 0.0 9.923421750000001 9.923421750000001
39 1 4.0 3.3078072500000006 6.615614500000001 9.923421750000001
40 1 4.0 3.3078072500000006 9.923421750000001 6.615614500000001
41 2 -2.0 1.6539036250000003 8.269518125000001 11.577325375000003
42 2 -2.0 1.6539036250000003 11.577325375000003 11.577325375000003
43 2 -2.0 1.6539036250000003 11.577325375000003 8.269518125000001
44 2 -2.0 1.6539036250000003 8.269518125000001 8.269518125000001
45 2 -2.0 4.9617108750000005 8.269518125000001 8.269518125000001
46 2 -2.0 4.9617108750000005 11.577325375000003 8.269518125000001
47 2 -2.0 4.9617108750000005 11.577325375000003 11.577325375000003
48 2 -2.0 4.9617108750000005 8.269518125000001 11.577325375000003
49 1 4.0 6.615614500000001 0.0 0.0
50 1 4.0 6.615614500000001 3.3078072500000006 3.3078072500000006
51 1 4.0 9.923421750000001 0.0 3.3078072500000006
52 1 4.0 9.923421750000001 3.3078072500000006 0.0
53 2 -2.0 8.269518125000001 1.6539036250000003 4.9617108750000005
54 2 -2.0 8.269518125000001 4.9617108750000005 4.9617108750000005
55 2 -2.0 8.269518125000001 4.9617108750000005 1.6539036250000003
56 2 -2.0 8.269518125000001 1.6539036250000003 1.6539036250000003
57 2 -2.0 11.577325375000003 1.6539036250000003 1.6539036250000003
58 2 -2.0 11.577325375000003 4.9617108750000005 1.6539036250000003
59 2 -2.0 11.577325375000003 4.9617108750000005 4.9617108750000005
60 2 -2.0 11.577325375000003 1.6539036250000003 4.9617108750000005
61 1 4.0 6.615614500000001 0.0 6.615614500000001
62 1 4.0 6.615614500000001 3.3078072500000006 9.923421750000001
63 1 4.0 9.923421750000001 13.231229000000003 9.923421750000001
64 1 4.0 9.923421750000001 3.3078072500000006 6.615614500000001
65 2 -2.0 8.269518125000001 1.6539036250000003 11.577325375000003
66 2 -2.0 8.269518125000001 4.9617108750000005 11.577325375000003
67 2 -2.0 8.269518125000001 4.9617108750000005 8.269518125000001
68 2 -2.0 8.269518125000001 1.6539036250000003 8.269518125000001
69 2 -2.0 11.577325375000003 1.6539036250000003 8.269518125000001
70 2 -2.0 11.577325375000003 4.9617108750000005 8.269518125000001
71 2 -2.0 11.577325375000003 4.9617108750000005 11.577325375000003
72 2 -2.0 11.577325375000003 1.6539036250000003 11.577325375000003
73 1 4.0 6.615614500000001 6.615614500000001 0.0
74 1 4.0 6.615614500000001 9.923421750000001 3.3078072500000006
75 1 4.0 9.923421750000001 6.615614500000001 3.3078072500000006
76 1 4.0 9.923421750000001 9.923421750000001 0.0
77 2 -2.0 8.269518125000001 8.269518125000001 4.9617108750000005
78 2 -2.0 8.269518125000001 11.577325375000003 4.9617108750000005
79 2 -2.0 8.269518125000001 11.577325375000003 1.6539036250000003
80 2 -2.0 8.269518125000001 8.269518125000001 1.6539036250000003
81 2 -2.0 11.577325375000003 8.269518125000001 1.6539036250000003
82 2 -2.0 11.577325375000003 11.577325375000003 1.6539036250000003
83 2 -2.0 11.577325375000003 11.577325375000003 4.9617108750000005
84 2 -2.0 11.577325375000003 8.269518125000001 4.9617108750000005
85 1 4.0 6.615614500000001 6.615614500000001 6.615614500000001
86 1 4.0 6.615614500000001 9.923421750000001 9.923421750000001
87 1 4.0 9.923421750000001 6.615614500000001 9.923421750000001
88 1 4.0 9.923421750000001 9.923421750000001 6.615614500000001
89 2 -2.0 8.269518125000001 8.269518125000001 11.577325375000003
90 2 -2.0 8.269518125000001 11.577325375000003 11.577325375000003
91 2 -2.0 8.269518125000001 11.577325375000003 8.269518125000001
92 2 -2.0 8.269518125000001 8.269518125000001 8.269518125000001
93 2 -2.0 11.577325375000003 8.269518125000001 8.269518125000001
94 2 -2.0 11.577325375000003 11.577325375000003 8.269518125000001
95 2 -2.0 11.577325375000003 11.577325375000003 11.577325375000003
96 2 -2.0 11.577325375000003 8.269518125000001 11.577325375000003
