 # "Ce32 O64"
  
          96  atoms
           2  atom types
 
0.0 16.839746000000005 xlo xhi
0.0 16.839746000000005 ylo yhi
0.0 16.839746000000005 zlo zhi
 
Masses
 
            1   140.11600000            # Ce
            2   15.99900000             # O
 
Atoms
 
1 1 4.0 0.0 0.0 0.0
2 1 4.0 0.0 4.209936500000001 4.209936500000001
3 1 4.0 4.209936500000001 0.0 4.209936500000001
4 1 4.0 4.209936500000001 4.209936500000001 0.0
5 2 -2.0 2.1049682500000007 2.1049682500000007 6.314904750000001
6 2 -2.0 2.1049682500000007 6.314904750000001 6.314904750000001
7 2 -2.0 2.1049682500000007 6.314904750000001 2.1049682500000007
8 2 -2.0 2.1049682500000007 2.1049682500000007 2.1049682500000007
9 2 -2.0 6.314904750000001 2.1049682500000007 2.1049682500000007
10 2 -2.0 6.314904750000001 6.314904750000001 2.1049682500000007
11 2 -2.0 6.314904750000001 6.314904750000001 6.314904750000001
12 2 -2.0 6.314904750000001 2.1049682500000007 6.314904750000001
13 1 4.0 0.0 0.0 8.419873000000003
14 1 4.0 0.0 4.209936500000001 12.629809500000002
15 1 4.0 4.209936500000001 16.839746000000005 12.629809500000002
16 1 4.0 4.209936500000001 4.209936500000001 8.419873000000003
17 2 -2.0 2.1049682500000007 2.1049682500000007 14.734777750000006
18 2 -2.0 2.1049682500000007 6.314904750000001 14.734777750000006
19 2 -2.0 2.1049682500000007 6.314904750000001 10.524841250000003
20 2 -2.0 2.1049682500000007 2.1049682500000007 10.524841250000003
21 2 -2.0 6.314904750000001 2.1049682500000007 10.524841250000003
22 2 -2.0 6.314904750000001 6.314904750000001 10.524841250000003
23 2 -2.0 6.314904750000001 6.314904750000001 14.734777750000006
24 2 -2.0 6.314904750000001 2.1049682500000007 14.734777750000006
25 1 4.0 0.0 8.419873000000003 0.0
26 1 4.0 0.0 12.629809500000002 4.209936500000001
27 1 4.0 4.209936500000001 8.419873000000003 4.209936500000001
28 1 4.0 4.209936500000001 12.629809500000002 0.0
29 2 -2.0 2.1049682500000007 10.524841250000003 6.314904750000001
30 2 -2.0 2.1049682500000007 14.734777750000006 6.314904750000001
31 2 -2.0 2.1049682500000007 14.734777750000006 2.1049682500000007
32 2 -2.0 2.1049682500000007 10.524841250000003 2.1049682500000007
33 2 -2.0 6.314904750000001 10.524841250000003 2.1049682500000007
34 2 -2.0 6.314904750000001 14.734777750000006 2.1049682500000007
35 2 -2.0 6.314904750000001 14.734777750000006 6.314904750000001
36 2 -2.0 6.314904750000001 10.524841250000003 6.314904750000001
37 1 4.0 0.0 8.419873000000003 8.419873000000003
38 1 4.0 0.0 12.629809500000002 12.629809500000002
39 1 4.0 4.209936500000001 8.419873000000003 12.629809500000002
40 1 4.0 4.209936500000001 12.629809500000002 8.419873000000003
41 2 -2.0 2.1049682500000007 10.524841250000003 14.734777750000006
42 2 -2.0 2.1049682500000007 14.734777750000006 14.734777750000006
43 2 -2.0 2.1049682500000007 14.734777750000006 10.524841250000003
44 2 -2.0 2.1049682500000007 10.524841250000003 10.524841250000003
45 2 -2.0 6.314904750000001 10.524841250000003 10.524841250000003
46 2 -2.0 6.314904750000001 14.734777750000006 10.524841250000003
47 2 -2.0 6.314904750000001 14.734777750000006 14.734777750000006
48 2 -2.0 6.314904750000001 10.524841250000003 14.734777750000006
49 1 4.0 8.419873000000003 0.0 0.0
50 1 4.0 8.419873000000003 4.209936500000001 4.209936500000001
51 1 4.0 12.629809500000002 0.0 4.209936500000001
52 1 4.0 12.629809500000002 4.209936500000001 0.0
53 2 -2.0 10.524841250000003 2.1049682500000007 6.314904750000001
54 2 -2.0 10.524841250000003 6.314904750000001 6.314904750000001
55 2 -2.0 10.524841250000003 6.314904750000001 2.1049682500000007
56 2 -2.0 10.524841250000003 2.1049682500000007 2.1049682500000007
57 2 -2.0 14.734777750000006 2.1049682500000007 2.1049682500000007
58 2 -2.0 14.734777750000006 6.314904750000001 2.1049682500000007
59 2 -2.0 14.734777750000006 6.314904750000001 6.314904750000001
60 2 -2.0 14.734777750000006 2.1049682500000007 6.314904750000001
61 1 4.0 8.419873000000003 0.0 8.419873000000003
62 1 4.0 8.419873000000003 4.209936500000001 12.629809500000002
63 1 4.0 12.629809500000002 16.839746000000005 12.629809500000002
64 1 4.0 12.629809500000002 4.209936500000001 8.419873000000003
65 2 -2.0 10.524841250000003 2.1049682500000007 14.734777750000006
66 2 -2.0 10.524841250000003 6.314904750000001 14.734777750000006
67 2 -2.0 10.524841250000003 6.314904750000001 10.524841250000003
68 2 -2.0 10.524841250000003 2.1049682500000007 10.524841250000003
69 2 -2.0 14.734777750000006 2.1049682500000007 10.524841250000003
70 2 -2.0 14.734777750000006 6.314904750000001 10.524841250000003
71 2 -2.0 14.734777750000006 6.314904750000001 14.734777750000006
72 2 -2.0 14.734777750000006 2.1049682500000007 14.734777750000006
73 1 4.0 8.419873000000003 8.419873000000003 0.0
74 1 4.0 8.419873000000003 12.629809500000002 4.209936500000001
75 1 4.0 12.629809500000002 8.419873000000003 4.209936500000001
76 1 4.0 12.629809500000002 12.629809500000002 0.0
77 2 -2.0 10.524841250000003 10.524841250000003 6.314904750000001
78 2 -2.0 10.524841250000003 14.734777750000006 6.314904750000001
79 2 -2.0 10.524841250000003 14.734777750000006 2.1049682500000007
80 2 -2.0 10.524841250000003 10.524841250000003 2.1049682500000007
81 2 -2.0 14.734777750000006 10.524841250000003 2.1049682500000007
82 2 -2.0 14.734777750000006 14.734777750000006 2.1049682500000007
83 2 -2.0 14.734777750000006 14.734777750000006 6.314904750000001
84 2 -2.0 14.734777750000006 10.524841250000003 6.314904750000001
85 1 4.0 8.419873000000003 8.419873000000003 8.419873000000003
86 1 4.0 8.419873000000003 12.629809500000002 12.629809500000002
87 1 4.0 12.629809500000002 8.419873000000003 12.629809500000002
88 1 4.0 12.629809500000002 12.629809500000002 8.419873000000003
89 2 -2.0 10.524841250000003 10.524841250000003 14.734777750000006
90 2 -2.0 10.524841250000003 14.734777750000006 14.734777750000006
91 2 -2.0 10.524841250000003 14.734777750000006 10.524841250000003
92 2 -2.0 10.524841250000003 10.524841250000003 10.524841250000003
93 2 -2.0 14.734777750000006 10.524841250000003 10.524841250000003
94 2 -2.0 14.734777750000006 14.734777750000006 10.524841250000003
95 2 -2.0 14.734777750000006 14.734777750000006 14.734777750000006
96 2 -2.0 14.734777750000006 10.524841250000003 14.734777750000006
