 # "Ce32 O64"
  
          96  atoms
           2  atom types
 
0.0 17.605189000000006 xlo xhi
0.0 17.605189000000006 ylo yhi
0.0 17.605189000000006 zlo zhi
 
Masses
 
            1   140.11600000            # Ce
            2   15.99900000             # O
 
Atoms
 
1 1 4.0 0.0 0.0 0.0
2 1 4.0 0.0 4.401297250000002 4.401297250000002
3 1 4.0 4.401297250000002 0.0 4.401297250000002
4 1 4.0 4.401297250000002 4.401297250000002 0.0
5 2 -2.0 2.200648625000001 2.200648625000001 6.601945875000002
6 2 -2.0 2.200648625000001 6.601945875000002 6.601945875000002
7 2 -2.0 2.200648625000001 6.601945875000002 2.200648625000001
8 2 -2.0 2.200648625000001 2.200648625000001 2.200648625000001
9 2 -2.0 6.601945875000002 2.200648625000001 2.200648625000001
10 2 -2.0 6.601945875000002 6.601945875000002 2.200648625000001
11 2 -2.0 6.601945875000002 6.601945875000002 6.601945875000002
12 2 -2.0 6.601945875000002 2.200648625000001 6.601945875000002
13 1 4.0 0.0 0.0 8.802594500000003
14 1 4.0 0.0 4.401297250000002 13.203891750000004
15 1 4.0 4.401297250000002 17.605189000000006 13.203891750000004
16 1 4.0 4.401297250000002 4.401297250000002 8.802594500000003
17 2 -2.0 2.200648625000001 2.200648625000001 15.404540375000007
18 2 -2.0 2.200648625000001 6.601945875000002 15.404540375000007
19 2 -2.0 2.200648625000001 6.601945875000002 11.003243125000004
20 2 -2.0 2.200648625000001 2.200648625000001 11.003243125000004
21 2 -2.0 6.601945875000002 2.200648625000001 11.003243125000004
22 2 -2.0 6.601945875000002 6.601945875000002 11.003243125000004
23 2 -2.0 6.601945875000002 6.601945875000002 15.404540375000007
24 2 -2.0 6.601945875000002 2.200648625000001 15.404540375000007
25 1 4.0 0.0 8.802594500000003 0.0
26 1 4.0 0.0 13.203891750000004 4.401297250000002
27 1 4.0 4.401297250000002 8.802594500000003 4.401297250000002
28 1 4.0 4.401297250000002 13.203891750000004 0.0
29 2 -2.0 2.200648625000001 11.003243125000004 6.601945875000002
30 2 -2.0 2.200648625000001 15.404540375000007 6.601945875000002
31 2 -2.0 2.200648625000001 15.404540375000007 2.200648625000001
32 2 -2.0 2.200648625000001 11.003243125000004 2.200648625000001
33 2 -2.0 6.601945875000002 11.003243125000004 2.200648625000001
34 2 -2.0 6.601945875000002 15.404540375000007 2.200648625000001
35 2 -2.0 6.601945875000002 15.404540375000007 6.601945875000002
36 2 -2.0 6.601945875000002 11.003243125000004 6.601945875000002
37 1 4.0 0.0 8.802594500000003 8.802594500000003
38 1 4.0 0.0 13.203891750000004 13.203891750000004
39 1 4.0 4.401297250000002 8.802594500000003 13.203891750000004
40 1 4.0 4.401297250000002 13.203891750000004 8.802594500000003
41 2 -2.0 2.200648625000001 11.003243125000004 15.404540375000007
42 2 -2.0 2.200648625000001 15.404540375000007 15.404540375000007
43 2 -2.0 2.200648625000001 15.404540375000007 11.003243125000004
44 2 -2.0 2.200648625000001 11.003243125000004 11.003243125000004
45 2 -2.0 6.601945875000002 11.003243125000004 11.003243125000004
46 2 -2.0 6.601945875000002 15.404540375000007 11.003243125000004
47 2 -2.0 6.601945875000002 15.404540375000007 15.404540375000007
48 2 -2.0 6.601945875000002 11.003243125000004 15.404540375000007
49 1 4.0 8.802594500000003 0.0 0.0
50 1 4.0 8.802594500000003 4.401297250000002 4.401297250000002
51 1 4.0 13.203891750000004 0.0 4.401297250000002
52 1 4.0 13.203891750000004 4.401297250000002 0.0
53 2 -2.0 11.003243125000004 2.200648625000001 6.601945875000002
54 2 -2.0 11.003243125000004 6.601945875000002 6.601945875000002
55 2 -2.0 11.003243125000004 6.601945875000002 2.200648625000001
56 2 -2.0 11.003243125000004 2.200648625000001 2.200648625000001
57 2 -2.0 15.404540375000007 2.200648625000001 2.200648625000001
58 2 -2.0 15.404540375000007 6.601945875000002 2.200648625000001
59 2 -2.0 15.404540375000007 6.601945875000002 6.601945875000002
60 2 -2.0 15.404540375000007 2.200648625000001 6.601945875000002
61 1 4.0 8.802594500000003 0.0 8.802594500000003
62 1 4.0 8.802594500000003 4.401297250000002 13.203891750000004
63 1 4.0 13.203891750000004 17.605189000000006 13.203891750000004
64 1 4.0 13.203891750000004 4.401297250000002 8.802594500000003
65 2 -2.0 11.003243125000004 2.200648625000001 15.404540375000007
66 2 -2.0 11.003243125000004 6.601945875000002 15.404540375000007
67 2 -2.0 11.003243125000004 6.601945875000002 11.003243125000004
68 2 -2.0 11.003243125000004 2.200648625000001 11.003243125000004
69 2 -2.0 15.404540375000007 2.200648625000001 11.003243125000004
70 2 -2.0 15.404540375000007 6.601945875000002 11.003243125000004
71 2 -2.0 15.404540375000007 6.601945875000002 15.404540375000007
72 2 -2.0 15.404540375000007 2.200648625000001 15.404540375000007
73 1 4.0 8.802594500000003 8.802594500000003 0.0
74 1 4.0 8.802594500000003 13.203891750000004 4.401297250000002
75 1 4.0 13.203891750000004 8.802594500000003 4.401297250000002
76 1 4.0 13.203891750000004 13.203891750000004 0.0
77 2 -2.0 11.003243125000004 11.003243125000004 6.601945875000002
78 2 -2.0 11.003243125000004 15.404540375000007 6.601945875000002
79 2 -2.0 11.003243125000004 15.404540375000007 2.200648625000001
80 2 -2.0 11.003243125000004 11.003243125000004 2.200648625000001
81 2 -2.0 15.404540375000007 11.003243125000004 2.200648625000001
82 2 -2.0 15.404540375000007 15.404540375000007 2.200648625000001
83 2 -2.0 15.404540375000007 15.404540375000007 6.601945875000002
84 2 -2.0 15.404540375000007 11.003243125000004 6.601945875000002
85 1 4.0 8.802594500000003 8.802594500000003 8.802594500000003
86 1 4.0 8.802594500000003 13.203891750000004 13.203891750000004
87 1 4.0 13.203891750000004 8.802594500000003 13.203891750000004
88 1 4.0 13.203891750000004 13.203891750000004 8.802594500000003
89 2 -2.0 11.003243125000004 11.003243125000004 15.404540375000007
90 2 -2.0 11.003243125000004 15.404540375000007 15.404540375000007
91 2 -2.0 11.003243125000004 15.404540375000007 11.003243125000004
92 2 -2.0 11.003243125000004 11.003243125000004 11.003243125000004
93 2 -2.0 15.404540375000007 11.003243125000004 11.003243125000004
94 2 -2.0 15.404540375000007 15.404540375000007 11.003243125000004
95 2 -2.0 15.404540375000007 15.404540375000007 15.404540375000007
96 2 -2.0 15.404540375000007 11.003243125000004 15.404540375000007
