 # "Ce32 O64"
  
          96  atoms
           2  atom types
 
0.0 11.153598 xlo xhi
0.0 11.153598 ylo yhi
0.0 11.153598 zlo zhi
 
Masses
 
            1   140.11600000            # Ce
            2   15.99900000             # O
 
Atoms
 
1 1 4.0 0.0 0.0 0.0
2 1 4.0 0.0 2.7883995 2.7883995
3 1 4.0 2.7883995 0.0 2.7883995
4 1 4.0 2.7883995 2.7883995 0.0
5 2 -2.0 1.39419975 1.39419975 4.18259925
6 2 -2.0 1.39419975 4.18259925 4.18259925
7 2 -2.0 1.39419975 4.18259925 1.39419975
8 2 -2.0 1.39419975 1.39419975 1.39419975
9 2 -2.0 4.18259925 1.39419975 1.39419975
10 2 -2.0 4.18259925 4.18259925 1.39419975
11 2 -2.0 4.18259925 4.18259925 4.18259925
12 2 -2.0 4.18259925 1.39419975 4.18259925
13 1 4.0 0.0 0.0 5.576799
14 1 4.0 0.0 2.7883995 8.3651985
15 1 4.0 2.7883995 11.153598 8.3651985
16 1 4.0 2.7883995 2.7883995 5.576799
17 2 -2.0 1.39419975 1.39419975 9.75939825
18 2 -2.0 1.39419975 4.18259925 9.75939825
19 2 -2.0 1.39419975 4.18259925 6.970998750000001
20 2 -2.0 1.39419975 1.39419975 6.970998750000001
21 2 -2.0 4.18259925 1.39419975 6.970998750000001
22 2 -2.0 4.18259925 4.18259925 6.970998750000001
23 2 -2.0 4.18259925 4.18259925 9.75939825
24 2 -2.0 4.18259925 1.39419975 9.75939825
25 1 4.0 0.0 5.576799 0.0
26 1 4.0 0.0 8.3651985 2.7883995
27 1 4.0 2.7883995 5.576799 2.7883995
28 1 4.0 2.7883995 8.3651985 0.0
29 2 -2.0 1.39419975 6.970998750000001 4.18259925
30 2 -2.0 1.39419975 9.75939825 4.18259925
31 2 -2.0 1.39419975 9.75939825 1.39419975
32 2 -2.0 1.39419975 6.970998750000001 1.39419975
33 2 -2.0 4.18259925 6.970998750000001 1.39419975
34 2 -2.0 4.18259925 9.75939825 1.39419975
35 2 -2.0 4.18259925 9.75939825 4.18259925
36 2 -2.0 4.18259925 6.970998750000001 4.18259925
37 1 4.0 0.0 5.576799 5.576799
38 1 4.0 0.0 8.3651985 8.3651985
39 1 4.0 2.7883995 5.576799 8.3651985
40 1 4.0 2.7883995 8.3651985 5.576799
41 2 -2.0 1.39419975 6.970998750000001 9.75939825
42 2 -2.0 1.39419975 9.75939825 9.75939825
43 2 -2.0 1.39419975 9.75939825 6.970998750000001
44 2 -2.0 1.39419975 6.970998750000001 6.970998750000001
45 2 -2.0 4.18259925 6.970998750000001 6.970998750000001
46 2 -2.0 4.18259925 9.75939825 6.970998750000001
47 2 -2.0 4.18259925 9.75939825 9.75939825
48 2 -2.0 4.18259925 6.970998750000001 9.75939825
49 1 4.0 5.576799 0.0 0.0
50 1 4.0 5.576799 2.7883995 2.7883995
51 1 4.0 8.3651985 0.0 2.7883995
52 1 4.0 8.3651985 2.7883995 0.0
53 2 -2.0 6.970998750000001 1.39419975 4.18259925
54 2 -2.0 6.970998750000001 4.18259925 4.18259925
55 2 -2.0 6.970998750000001 4.18259925 1.39419975
56 2 -2.0 6.970998750000001 1.39419975 1.39419975
57 2 -2.0 9.75939825 1.39419975 1.39419975
58 2 -2.0 9.75939825 4.18259925 1.39419975
59 2 -2.0 9.75939825 4.18259925 4.18259925
60 2 -2.0 9.75939825 1.39419975 4.18259925
61 1 4.0 5.576799 0.0 5.576799
62 1 4.0 5.576799 2.7883995 8.3651985
63 1 4.0 8.3651985 11.153598 8.3651985
64 1 4.0 8.3651985 2.7883995 5.576799
65 2 -2.0 6.970998750000001 1.39419975 9.75939825
66 2 -2.0 6.970998750000001 4.18259925 9.75939825
67 2 -2.0 6.970998750000001 4.18259925 6.970998750000001
68 2 -2.0 6.970998750000001 1.39419975 6.970998750000001
69 2 -2.0 9.75939825 1.39419975 6.970998750000001
70 2 -2.0 9.75939825 4.18259925 6.970998750000001
71 2 -2.0 9.75939825 4.18259925 9.75939825
72 2 -2.0 9.75939825 1.39419975 9.75939825
73 1 4.0 5.576799 5.576799 0.0
74 1 4.0 5.576799 8.3651985 2.7883995
75 1 4.0 8.3651985 5.576799 2.7883995
76 1 4.0 8.3651985 8.3651985 0.0
77 2 -2.0 6.970998750000001 6.970998750000001 4.18259925
78 2 -2.0 6.970998750000001 9.75939825 4.18259925
79 2 -2.0 6.970998750000001 9.75939825 1.39419975
80 2 -2.0 6.970998750000001 6.970998750000001 1.39419975
81 2 -2.0 9.75939825 6.970998750000001 1.39419975
82 2 -2.0 9.75939825 9.75939825 1.39419975
83 2 -2.0 9.75939825 9.75939825 4.18259925
84 2 -2.0 9.75939825 6.970998750000001 4.18259925
85 1 4.0 5.576799 5.576799 5.576799
86 1 4.0 5.576799 8.3651985 8.3651985
87 1 4.0 8.3651985 5.576799 8.3651985
88 1 4.0 8.3651985 8.3651985 5.576799
89 2 -2.0 6.970998750000001 6.970998750000001 9.75939825
90 2 -2.0 6.970998750000001 9.75939825 9.75939825
91 2 -2.0 6.970998750000001 9.75939825 6.970998750000001
92 2 -2.0 6.970998750000001 6.970998750000001 6.970998750000001
93 2 -2.0 9.75939825 6.970998750000001 6.970998750000001
94 2 -2.0 9.75939825 9.75939825 6.970998750000001
95 2 -2.0 9.75939825 9.75939825 9.75939825
96 2 -2.0 9.75939825 6.970998750000001 9.75939825
