ITEM: TIMESTEP
0
ITEM: NUMBER OF ATOMS
672
ITEM: BOX BOUNDS xy xz yz pp pp pp
0.0000000000000000e+00 2.5129462902225001e+01 7.7321424350000001e+00
0.0000000000000000e+00 1.4508502171190001e+01 1.9330355972250000e+00
0.0000000000000000e+00 1.6730159836002201e+02 1.1160386224109999e+00
ITEM: ATOMS id type xs ys zs
657 2 0.104953 0.104953 0.740566
658 2 0.104953 0.354953 0.740566
661 2 0.354953 0.104953 0.740566
662 2 0.354953 0.354953 0.740566
665 2 0.604953 0.104953 0.740566
666 2 0.604953 0.354953 0.740566
669 2 0.854953 0.104953 0.740566
670 2 0.854953 0.354953 0.740566
659 2 0.104953 0.604953 0.740566
660 2 0.104953 0.854953 0.740566
663 2 0.354953 0.604953 0.740566
664 2 0.354953 0.854953 0.740566
667 2 0.604953 0.604953 0.740566
668 2 0.604953 0.854953 0.740566
671 2 0.854953 0.604953 0.740566
672 2 0.854953 0.854953 0.740566
193 1 0.186321 0.186321 0.764151
209 1 0.0212264 0.0212264 0.745283
210 1 0.0212264 0.271226 0.745283
213 1 0.271226 0.0212264 0.745283
609 2 0.102594 0.102594 0.768868
610 2 0.102594 0.352594 0.768868
625 2 0.0200472 0.0200472 0.759434
626 2 0.0200472 0.270047 0.759434
629 2 0.270047 0.0200472 0.759434
641 2 0.1875 0.1875 0.75
194 1 0.186321 0.436321 0.764151
197 1 0.436321 0.186321 0.764151
198 1 0.436321 0.436321 0.764151
214 1 0.271226 0.271226 0.745283
217 1 0.521226 0.0212264 0.745283
218 1 0.521226 0.271226 0.745283
613 2 0.352594 0.102594 0.768868
614 2 0.352594 0.352594 0.768868
617 2 0.602594 0.102594 0.768868
630 2 0.270047 0.270047 0.759434
633 2 0.520047 0.0200472 0.759434
634 2 0.520047 0.270047 0.759434
642 2 0.1875 0.4375 0.75
645 2 0.4375 0.1875 0.75
646 2 0.4375 0.4375 0.75
201 1 0.686321 0.186321 0.764151
202 1 0.686321 0.436321 0.764151
205 1 0.936321 0.186321 0.764151
221 1 0.771226 0.0212264 0.745283
222 1 0.771226 0.271226 0.745283
618 2 0.602594 0.352594 0.768868
621 2 0.852594 0.102594 0.768868
622 2 0.852594 0.352594 0.768868
637 2 0.770047 0.0200472 0.759434
638 2 0.770047 0.270047 0.759434
649 2 0.6875 0.1875 0.75
650 2 0.6875 0.4375 0.75
653 2 0.9375 0.1875 0.75
206 1 0.936321 0.436321 0.764151
654 2 0.9375 0.4375 0.75
211 1 0.0212264 0.521226 0.745283
627 2 0.0200472 0.520047 0.759434
195 1 0.186321 0.686321 0.764151
196 1 0.186321 0.936321 0.764151
212 1 0.0212264 0.771226 0.745283
215 1 0.271226 0.521226 0.745283
216 1 0.271226 0.771226 0.745283
611 2 0.102594 0.602594 0.768868
612 2 0.102594 0.852594 0.768868
615 2 0.352594 0.602594 0.768868
628 2 0.0200472 0.770047 0.759434
631 2 0.270047 0.520047 0.759434
632 2 0.270047 0.770047 0.759434
643 2 0.1875 0.6875 0.75
644 2 0.1875 0.9375 0.75
199 1 0.436321 0.686321 0.764151
200 1 0.436321 0.936321 0.764151
203 1 0.686321 0.686321 0.764151
219 1 0.521226 0.521226 0.745283
220 1 0.521226 0.771226 0.745283
223 1 0.771226 0.521226 0.745283
616 2 0.352594 0.852594 0.768868
619 2 0.602594 0.602594 0.768868
620 2 0.602594 0.852594 0.768868
635 2 0.520047 0.520047 0.759434
636 2 0.520047 0.770047 0.759434
639 2 0.770047 0.520047 0.759434
647 2 0.4375 0.6875 0.75
648 2 0.4375 0.9375 0.75
651 2 0.6875 0.6875 0.75
204 1 0.686321 0.936321 0.764151
207 1 0.936321 0.686321 0.764151
208 1 0.936321 0.936321 0.764151
224 1 0.771226 0.771226 0.745283
623 2 0.852594 0.602594 0.768868
624 2 0.852594 0.852594 0.768868
640 2 0.770047 0.770047 0.759434
652 2 0.6875 0.9375 0.75
655 2 0.9375 0.6875 0.75
656 2 0.9375 0.9375 0.75
161 1 0.0165094 0.0165094 0.801887
162 1 0.0165094 0.266509 0.801887
165 1 0.266509 0.0165094 0.801887
177 1 0.101415 0.101415 0.783019
178 1 0.101415 0.351415 0.783019
545 2 0.182783 0.182783 0.806604
561 2 0.100236 0.100236 0.79717
562 2 0.100236 0.350236 0.79717
577 2 0.0176887 0.0176887 0.787736
578 2 0.0176887 0.267689 0.787736
581 2 0.267689 0.0176887 0.787736
593 2 0.185142 0.185142 0.778302
166 1 0.266509 0.266509 0.801887
169 1 0.516509 0.0165094 0.801887
170 1 0.516509 0.266509 0.801887
181 1 0.351415 0.101415 0.783019
182 1 0.351415 0.351415 0.783019
185 1 0.601415 0.101415 0.783019
546 2 0.182783 0.432783 0.806604
549 2 0.432783 0.182783 0.806604
550 2 0.432783 0.432783 0.806604
565 2 0.350236 0.100236 0.79717
566 2 0.350236 0.350236 0.79717
569 2 0.600236 0.100236 0.79717
582 2 0.267689 0.267689 0.787736
585 2 0.517689 0.0176887 0.787736
586 2 0.517689 0.267689 0.787736
594 2 0.185142 0.435142 0.778302
597 2 0.435142 0.185142 0.778302
598 2 0.435142 0.435142 0.778302
173 1 0.766509 0.0165094 0.801887
174 1 0.766509 0.266509 0.801887
186 1 0.601415 0.351415 0.783019
189 1 0.851415 0.101415 0.783019
190 1 0.851415 0.351415 0.783019
553 2 0.682783 0.182783 0.806604
554 2 0.682783 0.432783 0.806604
557 2 0.932783 0.182783 0.806604
570 2 0.600236 0.350236 0.79717
573 2 0.850236 0.100236 0.79717
574 2 0.850236 0.350236 0.79717
589 2 0.767689 0.0176887 0.787736
590 2 0.767689 0.267689 0.787736
601 2 0.685142 0.185142 0.778302
602 2 0.685142 0.435142 0.778302
605 2 0.935142 0.185142 0.778302
558 2 0.932783 0.432783 0.806604
606 2 0.935142 0.435142 0.778302
163 1 0.0165094 0.516509 0.801887
579 2 0.0176887 0.517689 0.787736
164 1 0.0165094 0.766509 0.801887
167 1 0.266509 0.516509 0.801887
168 1 0.266509 0.766509 0.801887
179 1 0.101415 0.601415 0.783019
180 1 0.101415 0.851415 0.783019
183 1 0.351415 0.601415 0.783019
547 2 0.182783 0.682783 0.806604
548 2 0.182783 0.932783 0.806604
563 2 0.100236 0.600236 0.79717
564 2 0.100236 0.850236 0.79717
567 2 0.350236 0.600236 0.79717
580 2 0.0176887 0.767689 0.787736
583 2 0.267689 0.517689 0.787736
584 2 0.267689 0.767689 0.787736
595 2 0.185142 0.685142 0.778302
596 2 0.185142 0.935142 0.778302
171 1 0.516509 0.516509 0.801887
172 1 0.516509 0.766509 0.801887
175 1 0.766509 0.516509 0.801887
184 1 0.351415 0.851415 0.783019
187 1 0.601415 0.601415 0.783019
188 1 0.601415 0.851415 0.783019
551 2 0.432783 0.682783 0.806604
552 2 0.432783 0.932783 0.806604
555 2 0.682783 0.682783 0.806604
568 2 0.350236 0.850236 0.79717
571 2 0.600236 0.600236 0.79717
572 2 0.600236 0.850236 0.79717
587 2 0.517689 0.517689 0.787736
588 2 0.517689 0.767689 0.787736
591 2 0.767689 0.517689 0.787736
599 2 0.435142 0.685142 0.778302
600 2 0.435142 0.935142 0.778302
603 2 0.685142 0.685142 0.778302
176 1 0.766509 0.766509 0.801887
191 1 0.851415 0.601415 0.783019
192 1 0.851415 0.851415 0.783019
556 2 0.682783 0.932783 0.806604
559 2 0.932783 0.682783 0.806604
560 2 0.932783 0.932783 0.806604
575 2 0.850236 0.600236 0.79717
576 2 0.850236 0.850236 0.79717
592 2 0.767689 0.767689 0.787736
604 2 0.685142 0.935142 0.778302
607 2 0.935142 0.685142 0.778302
608 2 0.935142 0.935142 0.778302
129 1 0.0966981 0.0966981 0.839623
130 1 0.0966981 0.346698 0.839623
145 1 0.181604 0.181604 0.820755
481 2 0.0129717 0.0129717 0.84434
482 2 0.0129717 0.262972 0.84434
485 2 0.262972 0.0129717 0.84434
497 2 0.180425 0.180425 0.834906
513 2 0.0978774 0.0978774 0.825472
514 2 0.0978774 0.347877 0.825472
529 2 0.0153302 0.0153302 0.816038
530 2 0.0153302 0.26533 0.816038
533 2 0.26533 0.0153302 0.816038
133 1 0.346698 0.0966981 0.839623
134 1 0.346698 0.346698 0.839623
137 1 0.596698 0.0966981 0.839623
146 1 0.181604 0.431604 0.820755
149 1 0.431604 0.181604 0.820755
150 1 0.431604 0.431604 0.820755
486 2 0.262972 0.262972 0.84434
489 2 0.512972 0.0129717 0.84434
490 2 0.512972 0.262972 0.84434
498 2 0.180425 0.430425 0.834906
501 2 0.430425 0.180425 0.834906
502 2 0.430425 0.430425 0.834906
517 2 0.347877 0.0978774 0.825472
518 2 0.347877 0.347877 0.825472
521 2 0.597877 0.0978774 0.825472
534 2 0.26533 0.26533 0.816038
537 2 0.51533 0.0153302 0.816038
538 2 0.51533 0.26533 0.816038
138 1 0.596698 0.346698 0.839623
141 1 0.846698 0.0966981 0.839623
142 1 0.846698 0.346698 0.839623
153 1 0.681604 0.181604 0.820755
154 1 0.681604 0.431604 0.820755
157 1 0.931604 0.181604 0.820755
493 2 0.762972 0.0129717 0.84434
494 2 0.762972 0.262972 0.84434
505 2 0.680425 0.180425 0.834906
506 2 0.680425 0.430425 0.834906
509 2 0.930425 0.180425 0.834906
522 2 0.597877 0.347877 0.825472
525 2 0.847877 0.0978774 0.825472
526 2 0.847877 0.347877 0.825472
541 2 0.76533 0.0153302 0.816038
542 2 0.76533 0.26533 0.816038
158 1 0.931604 0.431604 0.820755
510 2 0.930425 0.430425 0.834906
483 2 0.0129717 0.512972 0.84434
531 2 0.0153302 0.51533 0.816038
131 1 0.0966981 0.596698 0.839623
132 1 0.0966981 0.846698 0.839623
135 1 0.346698 0.596698 0.839623
147 1 0.181604 0.681604 0.820755
148 1 0.181604 0.931604 0.820755
484 2 0.0129717 0.762972 0.84434
487 2 0.262972 0.512972 0.84434
488 2 0.262972 0.762972 0.84434
499 2 0.180425 0.680425 0.834906
500 2 0.180425 0.930425 0.834906
515 2 0.0978774 0.597877 0.825472
516 2 0.0978774 0.847877 0.825472
519 2 0.347877 0.597877 0.825472
532 2 0.0153302 0.76533 0.816038
535 2 0.26533 0.51533 0.816038
536 2 0.26533 0.76533 0.816038
136 1 0.346698 0.846698 0.839623
139 1 0.596698 0.596698 0.839623
140 1 0.596698 0.846698 0.839623
151 1 0.431604 0.681604 0.820755
152 1 0.431604 0.931604 0.820755
155 1 0.681604 0.681604 0.820755
491 2 0.512972 0.512972 0.84434
492 2 0.512972 0.762972 0.84434
495 2 0.762972 0.512972 0.84434
503 2 0.430425 0.680425 0.834906
504 2 0.430425 0.930425 0.834906
507 2 0.680425 0.680425 0.834906
520 2 0.347877 0.847877 0.825472
523 2 0.597877 0.597877 0.825472
524 2 0.597877 0.847877 0.825472
539 2 0.51533 0.51533 0.816038
540 2 0.51533 0.76533 0.816038
543 2 0.76533 0.51533 0.816038
143 1 0.846698 0.596698 0.839623
144 1 0.846698 0.846698 0.839623
156 1 0.681604 0.931604 0.820755
159 1 0.931604 0.681604 0.820755
160 1 0.931604 0.931604 0.820755
496 2 0.762972 0.762972 0.84434
508 2 0.680425 0.930425 0.834906
511 2 0.930425 0.680425 0.834906
512 2 0.930425 0.930425 0.834906
527 2 0.847877 0.597877 0.825472
528 2 0.847877 0.847877 0.825472
544 2 0.76533 0.76533 0.816038
97 1 0.176887 0.176887 0.877358
113 1 0.0117925 0.0117924 0.858491
114 1 0.0117925 0.261792 0.858491
117 1 0.261792 0.0117924 0.858491
417 2 0.0931604 0.0931604 0.882075
418 2 0.0931604 0.34316 0.882075
433 2 0.0106132 0.0106132 0.872642
434 2 0.0106132 0.260613 0.872642
437 2 0.260613 0.0106132 0.872642
449 2 0.178066 0.178066 0.863208
465 2 0.0955189 0.0955189 0.853774
466 2 0.0955189 0.345519 0.853774
98 1 0.176887 0.426887 0.877358
101 1 0.426887 0.176887 0.877358
102 1 0.426887 0.426887 0.877358
118 1 0.261792 0.261792 0.858491
121 1 0.511792 0.0117924 0.858491
122 1 0.511792 0.261792 0.858491
421 2 0.34316 0.0931604 0.882075
422 2 0.34316 0.34316 0.882075
425 2 0.59316 0.0931604 0.882075
438 2 0.260613 0.260613 0.872642
441 2 0.510613 0.0106132 0.872642
442 2 0.510613 0.260613 0.872642
450 2 0.178066 0.428066 0.863208
453 2 0.428066 0.178066 0.863208
454 2 0.428066 0.428066 0.863208
469 2 0.345519 0.0955189 0.853774
470 2 0.345519 0.345519 0.853774
473 2 0.595519 0.0955189 0.853774
105 1 0.676887 0.176887 0.877358
106 1 0.676887 0.426887 0.877358
109 1 0.926887 0.176887 0.877358
125 1 0.761792 0.0117924 0.858491
126 1 0.761792 0.261792 0.858491
426 2 0.59316 0.34316 0.882075
429 2 0.84316 0.0931604 0.882075
430 2 0.84316 0.34316 0.882075
445 2 0.760613 0.0106132 0.872642
446 2 0.760613 0.260613 0.872642
457 2 0.678066 0.178066 0.863208
458 2 0.678066 0.428066 0.863208
461 2 0.928066 0.178066 0.863208
474 2 0.595519 0.345519 0.853774
477 2 0.845519 0.0955189 0.853774
478 2 0.845519 0.345519 0.853774
110 1 0.926887 0.426887 0.877358
462 2 0.928066 0.428066 0.863208
115 1 0.0117925 0.511792 0.858491
435 2 0.0106132 0.510613 0.872642
99 1 0.176887 0.676887 0.877358
100 1 0.176887 0.926887 0.877358
116 1 0.0117924 0.761792 0.858491
119 1 0.261792 0.511792 0.858491
120 1 0.261792 0.761792 0.858491
419 2 0.0931604 0.59316 0.882075
420 2 0.0931604 0.84316 0.882075
423 2 0.34316 0.59316 0.882075
436 2 0.0106132 0.760613 0.872642
439 2 0.260613 0.510613 0.872642
440 2 0.260613 0.760613 0.872642
451 2 0.178066 0.678066 0.863208
452 2 0.178066 0.928066 0.863208
467 2 0.0955189 0.595519 0.853774
468 2 0.0955189 0.845519 0.853774
471 2 0.345519 0.595519 0.853774
103 1 0.426887 0.676887 0.877358
104 1 0.426887 0.926887 0.877358
107 1 0.676887 0.676887 0.877358
123 1 0.511792 0.511792 0.858491
124 1 0.511792 0.761792 0.858491
127 1 0.761792 0.511792 0.858491
424 2 0.34316 0.84316 0.882075
427 2 0.59316 0.59316 0.882075
428 2 0.59316 0.84316 0.882075
443 2 0.510613 0.510613 0.872642
444 2 0.510613 0.760613 0.872642
447 2 0.760613 0.510613 0.872642
455 2 0.428066 0.678066 0.863208
456 2 0.428066 0.928066 0.863208
459 2 0.678066 0.678066 0.863208
472 2 0.345519 0.845519 0.853774
475 2 0.595519 0.595519 0.853774
476 2 0.595519 0.845519 0.853774
108 1 0.676887 0.926887 0.877358
111 1 0.926887 0.676887 0.877358
112 1 0.926887 0.926887 0.877358
128 1 0.761792 0.761792 0.858491
431 2 0.84316 0.59316 0.882075
432 2 0.84316 0.84316 0.882075
448 2 0.760613 0.760613 0.872642
460 2 0.678066 0.928066 0.863208
463 2 0.928066 0.678066 0.863208
464 2 0.928066 0.928066 0.863208
479 2 0.845519 0.595519 0.853774
480 2 0.845519 0.845519 0.853774
65 1 0.00707547 0.00707547 0.915094
66 1 0.00707547 0.257075 0.915094
69 1 0.257075 0.00707547 0.915094
81 1 0.0919811 0.0919811 0.896226
82 1 0.0919811 0.341981 0.896226
353 2 0.173349 0.173349 0.919811
369 2 0.0908019 0.0908019 0.910377
370 2 0.0908019 0.340802 0.910377
385 2 0.00825472 0.00825472 0.900943
386 2 0.00825472 0.258255 0.900943
389 2 0.258255 0.00825472 0.900943
401 2 0.175708 0.175708 0.891509
70 1 0.257075 0.257075 0.915094
73 1 0.507075 0.00707547 0.915094
74 1 0.507075 0.257075 0.915094
85 1 0.341981 0.0919811 0.896226
86 1 0.341981 0.341981 0.896226
89 1 0.591981 0.0919811 0.896226
354 2 0.173349 0.423349 0.919811
357 2 0.423349 0.173349 0.919811
358 2 0.423349 0.423349 0.919811
373 2 0.340802 0.0908019 0.910377
374 2 0.340802 0.340802 0.910377
377 2 0.590802 0.0908019 0.910377
390 2 0.258255 0.258255 0.900943
393 2 0.508255 0.00825472 0.900943
394 2 0.508255 0.258255 0.900943
402 2 0.175708 0.425708 0.891509
405 2 0.425708 0.175708 0.891509
406 2 0.425708 0.425708 0.891509
77 1 0.757075 0.00707547 0.915094
78 1 0.757075 0.257075 0.915094
90 1 0.591981 0.341981 0.896226
93 1 0.841981 0.0919811 0.896226
94 1 0.841981 0.341981 0.896226
361 2 0.673349 0.173349 0.919811
362 2 0.673349 0.423349 0.919811
365 2 0.923349 0.173349 0.919811
378 2 0.590802 0.340802 0.910377
381 2 0.840802 0.0908019 0.910377
382 2 0.840802 0.340802 0.910377
397 2 0.758255 0.00825472 0.900943
398 2 0.758255 0.258255 0.900943
409 2 0.675708 0.175708 0.891509
410 2 0.675708 0.425708 0.891509
413 2 0.925708 0.175708 0.891509
366 2 0.923349 0.423349 0.919811
414 2 0.925708 0.425708 0.891509
67 1 0.00707547 0.507075 0.915094
387 2 0.00825472 0.508255 0.900943
68 1 0.00707547 0.757075 0.915094
71 1 0.257075 0.507075 0.915094
72 1 0.257075 0.757075 0.915094
83 1 0.0919811 0.591981 0.896226
84 1 0.0919811 0.841981 0.896226
87 1 0.341981 0.591981 0.896226
355 2 0.173349 0.673349 0.919811
356 2 0.173349 0.923349 0.919811
371 2 0.0908019 0.590802 0.910377
372 2 0.0908019 0.840802 0.910377
375 2 0.340802 0.590802 0.910377
388 2 0.00825472 0.758255 0.900943
391 2 0.258255 0.508255 0.900943
392 2 0.258255 0.758255 0.900943
403 2 0.175708 0.675708 0.891509
404 2 0.175708 0.925708 0.891509
75 1 0.507075 0.507075 0.915094
76 1 0.507075 0.757075 0.915094
79 1 0.757075 0.507075 0.915094
88 1 0.341981 0.841981 0.896226
91 1 0.591981 0.591981 0.896226
92 1 0.591981 0.841981 0.896226
359 2 0.423349 0.673349 0.919811
360 2 0.423349 0.923349 0.919811
363 2 0.673349 0.673349 0.919811
376 2 0.340802 0.840802 0.910377
379 2 0.590802 0.590802 0.910377
380 2 0.590802 0.840802 0.910377
395 2 0.508255 0.508255 0.900943
396 2 0.508255 0.758255 0.900943
399 2 0.758255 0.508255 0.900943
407 2 0.425708 0.675708 0.891509
408 2 0.425708 0.925708 0.891509
411 2 0.675708 0.675708 0.891509
80 1 0.757075 0.757075 0.915094
95 1 0.841981 0.591981 0.896226
96 1 0.841981 0.841981 0.896226
364 2 0.673349 0.923349 0.919811
367 2 0.923349 0.673349 0.919811
368 2 0.923349 0.923349 0.919811
383 2 0.840802 0.590802 0.910377
384 2 0.840802 0.840802 0.910377
400 2 0.758255 0.758255 0.900943
412 2 0.675708 0.925708 0.891509
415 2 0.925708 0.675708 0.891509
416 2 0.925708 0.925708 0.891509
33 1 0.0872641 0.0872641 0.95283
34 1 0.0872641 0.337264 0.95283
49 1 0.17217 0.17217 0.933962
289 2 0.00353774 0.00353774 0.957547
290 2 0.00353774 0.253538 0.957547
293 2 0.253538 0.00353774 0.957547
305 2 0.170991 0.170991 0.948113
321 2 0.0884434 0.0884434 0.938679
322 2 0.0884434 0.338443 0.938679
337 2 0.00589623 0.00589623 0.929245
338 2 0.00589623 0.255896 0.929245
341 2 0.255896 0.00589623 0.929245
37 1 0.337264 0.0872641 0.95283
38 1 0.337264 0.337264 0.95283
41 1 0.587264 0.0872641 0.95283
50 1 0.17217 0.42217 0.933962
53 1 0.42217 0.17217 0.933962
54 1 0.42217 0.42217 0.933962
294 2 0.253538 0.253538 0.957547
297 2 0.503538 0.00353774 0.957547
298 2 0.503538 0.253538 0.957547
306 2 0.170991 0.420991 0.948113
309 2 0.420991 0.170991 0.948113
310 2 0.420991 0.420991 0.948113
325 2 0.338443 0.0884434 0.938679
326 2 0.338443 0.338443 0.938679
329 2 0.588443 0.0884434 0.938679
342 2 0.255896 0.255896 0.929245
345 2 0.505896 0.00589623 0.929245
346 2 0.505896 0.255896 0.929245
42 1 0.587264 0.337264 0.95283
45 1 0.837264 0.0872641 0.95283
46 1 0.837264 0.337264 0.95283
57 1 0.67217 0.17217 0.933962
58 1 0.67217 0.42217 0.933962
61 1 0.92217 0.17217 0.933962
301 2 0.753538 0.00353774 0.957547
302 2 0.753538 0.253538 0.957547
313 2 0.670991 0.170991 0.948113
314 2 0.670991 0.420991 0.948113
317 2 0.920991 0.170991 0.948113
330 2 0.588443 0.338443 0.938679
333 2 0.838443 0.0884434 0.938679
334 2 0.838443 0.338443 0.938679
349 2 0.755896 0.00589623 0.929245
350 2 0.755896 0.255896 0.929245
62 1 0.92217 0.42217 0.933962
318 2 0.920991 0.420991 0.948113
291 2 0.00353774 0.503538 0.957547
339 2 0.00589623 0.505896 0.929245
35 1 0.0872641 0.587264 0.95283
36 1 0.0872641 0.837264 0.95283
39 1 0.337264 0.587264 0.95283
51 1 0.17217 0.67217 0.933962
52 1 0.17217 0.92217 0.933962
292 2 0.00353774 0.753538 0.957547
295 2 0.253538 0.503538 0.957547
296 2 0.253538 0.753538 0.957547
307 2 0.170991 0.670991 0.948113
308 2 0.170991 0.920991 0.948113
323 2 0.0884434 0.588443 0.938679
324 2 0.0884434 0.838443 0.938679
327 2 0.338443 0.588443 0.938679
340 2 0.00589623 0.755896 0.929245
343 2 0.255896 0.505896 0.929245
344 2 0.255896 0.755896 0.929245
40 1 0.337264 0.837264 0.95283
43 1 0.587264 0.587264 0.95283
44 1 0.587264 0.837264 0.95283
55 1 0.42217 0.67217 0.933962
56 1 0.42217 0.92217 0.933962
59 1 0.67217 0.67217 0.933962
299 2 0.503538 0.503538 0.957547
300 2 0.503538 0.753538 0.957547
303 2 0.753538 0.503538 0.957547
311 2 0.420991 0.670991 0.948113
312 2 0.420991 0.920991 0.948113
315 2 0.670991 0.670991 0.948113
328 2 0.338443 0.838443 0.938679
331 2 0.588443 0.588443 0.938679
332 2 0.588443 0.838443 0.938679
347 2 0.505896 0.505896 0.929245
348 2 0.505896 0.755896 0.929245
351 2 0.755896 0.505896 0.929245
47 1 0.837264 0.587264 0.95283
48 1 0.837264 0.837264 0.95283
60 1 0.67217 0.92217 0.933962
63 1 0.92217 0.67217 0.933962
64 1 0.92217 0.92217 0.933962
304 2 0.753538 0.753538 0.957547
316 2 0.670991 0.920991 0.948113
319 2 0.920991 0.670991 0.948113
320 2 0.920991 0.920991 0.948113
335 2 0.838443 0.588443 0.938679
336 2 0.838443 0.838443 0.938679
352 2 0.755896 0.755896 0.929245
1 1 0.167453 0.167453 0.990566
17 1 0.00235849 0.00235849 0.971698
18 1 0.00235849 0.252358 0.971698
21 1 0.252358 0.00235849 0.971698
225 2 0.0837264 0.0837264 0.995283
226 2 0.0837264 0.333726 0.995283
241 2 0.00117925 0.00117925 0.985849
242 2 0.00117925 0.251179 0.985849
245 2 0.251179 0.00117925 0.985849
257 2 0.168632 0.168632 0.976415
273 2 0.0860849 0.0860849 0.966981
274 2 0.0860849 0.336085 0.966981
2 1 0.167453 0.417453 0.990566
5 1 0.417453 0.167453 0.990566
6 1 0.417453 0.417453 0.990566
22 1 0.252358 0.252358 0.971698
25 1 0.502358 0.00235849 0.971698
26 1 0.502358 0.252358 0.971698
229 2 0.333726 0.0837264 0.995283
230 2 0.333726 0.333726 0.995283
233 2 0.583726 0.0837264 0.995283
246 2 0.251179 0.251179 0.985849
249 2 0.501179 0.00117925 0.985849
250 2 0.501179 0.251179 0.985849
258 2 0.168632 0.418632 0.976415
261 2 0.418632 0.168632 0.976415
262 2 0.418632 0.418632 0.976415
277 2 0.336085 0.0860849 0.966981
278 2 0.336085 0.336085 0.966981
281 2 0.586085 0.0860849 0.966981
9 1 0.667453 0.167453 0.990566
10 1 0.667453 0.417453 0.990566
13 1 0.917453 0.167453 0.990566
29 1 0.752358 0.00235849 0.971698
30 1 0.752358 0.252358 0.971698
234 2 0.583726 0.333726 0.995283
237 2 0.833726 0.0837264 0.995283
238 2 0.833726 0.333726 0.995283
253 2 0.751179 0.00117925 0.985849
254 2 0.751179 0.251179 0.985849
265 2 0.668632 0.168632 0.976415
266 2 0.668632 0.418632 0.976415
269 2 0.918632 0.168632 0.976415
282 2 0.586085 0.336085 0.966981
285 2 0.836085 0.0860849 0.966981
286 2 0.836085 0.336085 0.966981
14 1 0.917453 0.417453 0.990566
270 2 0.918632 0.418632 0.976415
19 1 0.00235849 0.502358 0.971698
243 2 0.00117925 0.501179 0.985849
3 1 0.167453 0.667453 0.990566
4 1 0.167453 0.917453 0.990566
20 1 0.00235849 0.752358 0.971698
23 1 0.252358 0.502358 0.971698
24 1 0.252358 0.752358 0.971698
227 2 0.0837264 0.583726 0.995283
228 2 0.0837264 0.833726 0.995283
231 2 0.333726 0.583726 0.995283
244 2 0.00117925 0.751179 0.985849
247 2 0.251179 0.501179 0.985849
248 2 0.251179 0.751179 0.985849
259 2 0.168632 0.668632 0.976415
260 2 0.168632 0.918632 0.976415
275 2 0.0860849 0.586085 0.966981
276 2 0.0860849 0.836085 0.966981
279 2 0.336085 0.586085 0.966981
7 1 0.417453 0.667453 0.990566
8 1 0.417453 0.917453 0.990566
11 1 0.667453 0.667453 0.990566
27 1 0.502358 0.502358 0.971698
28 1 0.502358 0.752358 0.971698
31 1 0.752358 0.502358 0.971698
232 2 0.333726 0.833726 0.995283
235 2 0.583726 0.583726 0.995283
236 2 0.583726 0.833726 0.995283
251 2 0.501179 0.501179 0.985849
252 2 0.501179 0.751179 0.985849
255 2 0.751179 0.501179 0.985849
263 2 0.418632 0.668632 0.976415
264 2 0.418632 0.918632 0.976415
267 2 0.668632 0.668632 0.976415
280 2 0.336085 0.836085 0.966981
283 2 0.586085 0.586085 0.966981
284 2 0.586085 0.836085 0.966981
12 1 0.667453 0.917453 0.990566
15 1 0.917453 0.667453 0.990566
16 1 0.917453 0.917453 0.990566
32 1 0.752358 0.752358 0.971698
239 2 0.833726 0.583726 0.995283
240 2 0.833726 0.833726 0.995283
256 2 0.751179 0.751179 0.985849
268 2 0.668632 0.918632 0.976415
271 2 0.918632 0.668632 0.976415
272 2 0.918632 0.918632 0.976415
287 2 0.836085 0.586085 0.966981
288 2 0.836085 0.836085 0.966981
ITEM: TIMESTEP
1
ITEM: NUMBER OF ATOMS
672
ITEM: BOX BOUNDS xy xz yz pp pp pp
0.0000000000000000e+00 2.5129462902225001e+01 7.7321424350000001e+00
0.0000000000000000e+00 1.4508502171190001e+01 1.9330355972250000e+00
0.0000000000000000e+00 1.6730159836002201e+02 1.1160386224109999e+00
ITEM: ATOMS id type xs ys zs
657 2 0.104952 0.104952 0.740564
658 2 0.104952 0.354952 0.740564
661 2 0.354952 0.104952 0.740564
662 2 0.354952 0.354952 0.740564
665 2 0.604952 0.104952 0.740564
666 2 0.604952 0.354952 0.740564
669 2 0.854952 0.104952 0.740564
670 2 0.854952 0.354952 0.740564
659 2 0.104952 0.604952 0.740564
660 2 0.104952 0.854952 0.740564
663 2 0.354952 0.604952 0.740564
664 2 0.354952 0.854952 0.740564
667 2 0.604952 0.604952 0.740564
668 2 0.604952 0.854952 0.740564
671 2 0.854952 0.604952 0.740564
672 2 0.854952 0.854952 0.740564
193 1 0.186314 0.186314 0.764177
209 1 0.0212325 0.0212325 0.74524
210 1 0.0212325 0.271233 0.74524
213 1 0.271233 0.0212325 0.74524
609 2 0.102596 0.102596 0.768868
610 2 0.102596 0.352596 0.768868
625 2 0.0200507 0.0200507 0.759406
626 2 0.0200507 0.270051 0.759406
629 2 0.270051 0.0200507 0.759406
641 2 0.187502 0.187502 0.749972
194 1 0.186314 0.436314 0.764177
197 1 0.436314 0.186314 0.764177
198 1 0.436314 0.436314 0.764177
214 1 0.271233 0.271233 0.74524
217 1 0.521233 0.0212325 0.74524
218 1 0.521233 0.271233 0.74524
613 2 0.352596 0.102596 0.768868
614 2 0.352596 0.352596 0.768868
617 2 0.602596 0.102596 0.768868
630 2 0.270051 0.270051 0.759406
633 2 0.520051 0.0200507 0.759406
634 2 0.520051 0.270051 0.759406
642 2 0.187502 0.437502 0.749972
645 2 0.437502 0.187502 0.749972
646 2 0.437502 0.437502 0.749972
201 1 0.686314 0.186314 0.764177
202 1 0.686314 0.436314 0.764177
205 1 0.936314 0.186314 0.764177
221 1 0.771233 0.0212325 0.74524
222 1 0.771233 0.271233 0.74524
618 2 0.602596 0.352596 0.768868
621 2 0.852596 0.102596 0.768868
622 2 0.852596 0.352596 0.768868
637 2 0.770051 0.0200507 0.759406
638 2 0.770051 0.270051 0.759406
649 2 0.687502 0.187502 0.749972
650 2 0.687502 0.437502 0.749972
653 2 0.937502 0.187502 0.749972
206 1 0.936314 0.436314 0.764177
654 2 0.937502 0.437502 0.749972
211 1 0.0212325 0.521233 0.74524
627 2 0.0200507 0.520051 0.759406
195 1 0.186314 0.686314 0.764177
196 1 0.186314 0.936314 0.764177
212 1 0.0212325 0.771233 0.74524
215 1 0.271233 0.521233 0.74524
216 1 0.271233 0.771233 0.74524
611 2 0.102596 0.602596 0.768868
612 2 0.102596 0.852596 0.768868
615 2 0.352596 0.602596 0.768868
628 2 0.0200507 0.770051 0.759406
631 2 0.270051 0.520051 0.759406
632 2 0.270051 0.770051 0.759406
643 2 0.187502 0.687502 0.749972
644 2 0.187502 0.937502 0.749972
199 1 0.436314 0.686314 0.764177
200 1 0.436314 0.936314 0.764177
203 1 0.686314 0.686314 0.764177
219 1 0.521233 0.521233 0.74524
220 1 0.521233 0.771233 0.74524
223 1 0.771233 0.521233 0.74524
616 2 0.352596 0.852596 0.768868
619 2 0.602596 0.602596 0.768868
620 2 0.602596 0.852596 0.768868
635 2 0.520051 0.520051 0.759406
636 2 0.520051 0.770051 0.759406
639 2 0.770051 0.520051 0.759406
647 2 0.437502 0.687502 0.749972
648 2 0.437502 0.937502 0.749972
651 2 0.687502 0.687502 0.749972
204 1 0.686314 0.936314 0.764177
207 1 0.936314 0.686314 0.764177
208 1 0.936314 0.936314 0.764177
224 1 0.771233 0.771233 0.74524
623 2 0.852596 0.602596 0.768868
624 2 0.852596 0.852596 0.768868
640 2 0.770051 0.770051 0.759406
652 2 0.687502 0.937502 0.749972
655 2 0.937502 0.687502 0.749972
656 2 0.937502 0.937502 0.749972
161 1 0.016505 0.016505 0.80189
162 1 0.016505 0.266505 0.80189
165 1 0.266505 0.016505 0.80189
177 1 0.101413 0.101413 0.783002
178 1 0.101413 0.351413 0.783002
545 2 0.182785 0.182785 0.806603
561 2 0.100238 0.100238 0.797166
562 2 0.100238 0.350238 0.797166
577 2 0.0176903 0.0176903 0.787741
578 2 0.0176903 0.26769 0.787741
581 2 0.26769 0.0176903 0.787741
593 2 0.185143 0.185143 0.778304
166 1 0.266505 0.266505 0.80189
169 1 0.516505 0.016505 0.80189
170 1 0.516505 0.266505 0.80189
181 1 0.351413 0.101413 0.783002
182 1 0.351413 0.351413 0.783002
185 1 0.601413 0.101413 0.783002
546 2 0.182785 0.432785 0.806603
549 2 0.432785 0.182785 0.806603
550 2 0.432785 0.432785 0.806603
565 2 0.350238 0.100238 0.797166
566 2 0.350238 0.350238 0.797166
569 2 0.600238 0.100238 0.797166
582 2 0.26769 0.26769 0.787741
585 2 0.51769 0.0176903 0.787741
586 2 0.51769 0.26769 0.787741
594 2 0.185143 0.435143 0.778304
597 2 0.435143 0.185143 0.778304
598 2 0.435143 0.435143 0.778304
173 1 0.766505 0.016505 0.80189
174 1 0.766505 0.266505 0.80189
186 1 0.601413 0.351413 0.783002
189 1 0.851413 0.101413 0.783002
190 1 0.851413 0.351413 0.783002
553 2 0.682785 0.182785 0.806603
554 2 0.682785 0.432785 0.806603
557 2 0.932785 0.182785 0.806603
570 2 0.600238 0.350238 0.797166
573 2 0.850238 0.100238 0.797166
574 2 0.850238 0.350238 0.797166
589 2 0.76769 0.0176903 0.787741
590 2 0.76769 0.26769 0.787741
601 2 0.685143 0.185143 0.778304
602 2 0.685143 0.435143 0.778304
605 2 0.935143 0.185143 0.778304
558 2 0.932785 0.432785 0.806603
606 2 0.935143 0.435143 0.778304
163 1 0.016505 0.516505 0.80189
579 2 0.0176903 0.51769 0.787741
164 1 0.016505 0.766505 0.80189
167 1 0.266505 0.516505 0.80189
168 1 0.266505 0.766505 0.80189
179 1 0.101413 0.601413 0.783002
180 1 0.101413 0.851413 0.783002
183 1 0.351413 0.601413 0.783002
547 2 0.182785 0.682785 0.806603
548 2 0.182785 0.932785 0.806603
563 2 0.100238 0.600238 0.797166
564 2 0.100238 0.850238 0.797166
567 2 0.350238 0.600238 0.797166
580 2 0.0176903 0.76769 0.787741
583 2 0.26769 0.51769 0.787741
584 2 0.26769 0.76769 0.787741
595 2 0.185143 0.685143 0.778304
596 2 0.185143 0.935143 0.778304
171 1 0.516505 0.516505 0.80189
172 1 0.516505 0.766505 0.80189
175 1 0.766505 0.516505 0.80189
184 1 0.351413 0.851413 0.783002
187 1 0.601413 0.601413 0.783002
188 1 0.601413 0.851413 0.783002
551 2 0.432785 0.682785 0.806603
552 2 0.432785 0.932785 0.806603
555 2 0.682785 0.682785 0.806603
568 2 0.350238 0.850238 0.797166
571 2 0.600238 0.600238 0.797166
572 2 0.600238 0.850238 0.797166
587 2 0.51769 0.51769 0.787741
588 2 0.51769 0.76769 0.787741
591 2 0.76769 0.51769 0.787741
599 2 0.435143 0.685143 0.778304
600 2 0.435143 0.935143 0.778304
603 2 0.685143 0.685143 0.778304
176 1 0.766505 0.766505 0.80189
191 1 0.851413 0.601413 0.783002
192 1 0.851413 0.851413 0.783002
556 2 0.682785 0.932785 0.806603
559 2 0.932785 0.682785 0.806603
560 2 0.932785 0.932785 0.806603
575 2 0.850238 0.600238 0.797166
576 2 0.850238 0.850238 0.797166
592 2 0.76769 0.76769 0.787741
604 2 0.685143 0.935143 0.778304
607 2 0.935143 0.685143 0.778304
608 2 0.935143 0.935143 0.778304
129 1 0.0966941 0.0966941 0.839623
130 1 0.0966941 0.346694 0.839623
145 1 0.1816 0.1816 0.820754
481 2 0.0129737 0.0129737 0.844339
482 2 0.0129737 0.262974 0.844339
485 2 0.262974 0.0129737 0.844339
497 2 0.180426 0.180426 0.834905
513 2 0.0978793 0.0978793 0.825472
514 2 0.0978793 0.347879 0.825472
529 2 0.0153322 0.0153322 0.816038
530 2 0.0153322 0.265332 0.816038
533 2 0.265332 0.0153322 0.816038
133 1 0.346694 0.0966941 0.839623
134 1 0.346694 0.346694 0.839623
137 1 0.596694 0.0966941 0.839623
146 1 0.1816 0.4316 0.820754
149 1 0.4316 0.1816 0.820754
150 1 0.4316 0.4316 0.820754
486 2 0.262974 0.262974 0.844339
489 2 0.512974 0.0129737 0.844339
490 2 0.512974 0.262974 0.844339
498 2 0.180426 0.430426 0.834905
501 2 0.430426 0.180426 0.834905
502 2 0.430426 0.430426 0.834905
517 2 0.347879 0.0978793 0.825472
518 2 0.347879 0.347879 0.825472
521 2 0.597879 0.0978793 0.825472
534 2 0.265332 0.265332 0.816038
537 2 0.515332 0.0153322 0.816038
538 2 0.515332 0.265332 0.816038