 # Ce1 O1
  
           2  atoms
           2  atom types
 
      0.000000000000       5.467450350000  xlo xhi
      0.000000000000       5.467450350000  ylo yhi
      0.000000000000       5.467450350000  zlo zhi
 
Masses
 
            1   140.11600000            # Ce
            2   15.99900000             # O
 
Atoms # charge
 
         1    1   4.000000        0.000000000000       0.000000000000       0.000000000000
         2    2  -2.000000        1.366862587500       1.366862587500       1.366862587500
