 # "Ce32 O64"
  
          96  atoms
           2  atom types
 
0.0 10.9349 xlo xhi
0.0 10.9349 ylo yhi
0.0 10.9349 zlo zhi
 
Masses
 
            1   140.11600000            # Ce
            2   15.99900000             # O
 
Atoms
 
1 1 4.0 0.0 0.0 0.0
2 1 4.0 0.0 2.733725 2.733725
3 1 4.0 2.733725 0.0 2.733725
4 1 4.0 2.733725 2.733725 0.0
5 2 -2.0 1.3668625 1.3668625 4.1005875
6 2 -2.0 1.3668625 4.1005875 4.1005875
7 2 -2.0 1.3668625 4.1005875 1.3668625
8 2 -2.0 1.3668625 1.3668625 1.3668625
9 2 -2.0 4.1005875 1.3668625 1.3668625
10 2 -2.0 4.1005875 4.1005875 1.3668625
11 2 -2.0 4.1005875 4.1005875 4.1005875
12 2 -2.0 4.1005875 1.3668625 4.1005875
13 1 4.0 0.0 0.0 5.46745
14 1 4.0 0.0 2.733725 8.201175
15 1 4.0 2.733725 10.9349 8.201175
16 1 4.0 2.733725 2.733725 5.46745
17 2 -2.0 1.3668625 1.3668625 9.5680375
18 2 -2.0 1.3668625 4.1005875 9.5680375
19 2 -2.0 1.3668625 4.1005875 6.8343125
20 2 -2.0 1.3668625 1.3668625 6.8343125
21 2 -2.0 4.1005875 1.3668625 6.8343125
22 2 -2.0 4.1005875 4.1005875 6.8343125
23 2 -2.0 4.1005875 4.1005875 9.5680375
24 2 -2.0 4.1005875 1.3668625 9.5680375
25 1 4.0 0.0 5.46745 0.0
26 1 4.0 0.0 8.201175 2.733725
27 1 4.0 2.733725 5.46745 2.733725
28 1 4.0 2.733725 8.201175 0.0
29 2 -2.0 1.3668625 6.8343125 4.1005875
30 2 -2.0 1.3668625 9.5680375 4.1005875
31 2 -2.0 1.3668625 9.5680375 1.3668625
32 2 -2.0 1.3668625 6.8343125 1.3668625
33 2 -2.0 4.1005875 6.8343125 1.3668625
34 2 -2.0 4.1005875 9.5680375 1.3668625
35 2 -2.0 4.1005875 9.5680375 4.1005875
36 2 -2.0 4.1005875 6.8343125 4.1005875
37 1 4.0 0.0 5.46745 5.46745
38 1 4.0 0.0 8.201175 8.201175
39 1 4.0 2.733725 5.46745 8.201175
40 1 4.0 2.733725 8.201175 5.46745
41 2 -2.0 1.3668625 6.8343125 9.5680375
42 2 -2.0 1.3668625 9.5680375 9.5680375
43 2 -2.0 1.3668625 9.5680375 6.8343125
44 2 -2.0 1.3668625 6.8343125 6.8343125
45 2 -2.0 4.1005875 6.8343125 6.8343125
46 2 -2.0 4.1005875 9.5680375 6.8343125
47 2 -2.0 4.1005875 9.5680375 9.5680375
48 2 -2.0 4.1005875 6.8343125 9.5680375
49 1 4.0 5.46745 0.0 0.0
50 1 4.0 5.46745 2.733725 2.733725
51 1 4.0 8.201175 0.0 2.733725
52 1 4.0 8.201175 2.733725 0.0
53 2 -2.0 6.8343125 1.3668625 4.1005875
54 2 -2.0 6.8343125 4.1005875 4.1005875
55 2 -2.0 6.8343125 4.1005875 1.3668625
56 2 -2.0 6.8343125 1.3668625 1.3668625
57 2 -2.0 9.5680375 1.3668625 1.3668625
58 2 -2.0 9.5680375 4.1005875 1.3668625
59 2 -2.0 9.5680375 4.1005875 4.1005875
60 2 -2.0 9.5680375 1.3668625 4.1005875
61 1 4.0 5.46745 0.0 5.46745
62 1 4.0 5.46745 2.733725 8.201175
63 1 4.0 8.201175 10.9349 8.201175
64 1 4.0 8.201175 2.733725 5.46745
65 2 -2.0 6.8343125 1.3668625 9.5680375
66 2 -2.0 6.8343125 4.1005875 9.5680375
67 2 -2.0 6.8343125 4.1005875 6.8343125
68 2 -2.0 6.8343125 1.3668625 6.8343125
69 2 -2.0 9.5680375 1.3668625 6.8343125
70 2 -2.0 9.5680375 4.1005875 6.8343125
71 2 -2.0 9.5680375 4.1005875 9.5680375
72 2 -2.0 9.5680375 1.3668625 9.5680375
73 1 4.0 5.46745 5.46745 0.0
74 1 4.0 5.46745 8.201175 2.733725
75 1 4.0 8.201175 5.46745 2.733725
76 1 4.0 8.201175 8.201175 0.0
77 2 -2.0 6.8343125 6.8343125 4.1005875
78 2 -2.0 6.8343125 9.5680375 4.1005875
79 2 -2.0 6.8343125 9.5680375 1.3668625
80 2 -2.0 6.8343125 6.8343125 1.3668625
81 2 -2.0 9.5680375 6.8343125 1.3668625
82 2 -2.0 9.5680375 9.5680375 1.3668625
83 2 -2.0 9.5680375 9.5680375 4.1005875
84 2 -2.0 9.5680375 6.8343125 4.1005875
85 1 4.0 5.46745 5.46745 5.46745
86 1 4.0 5.46745 8.201175 8.201175
87 1 4.0 8.201175 5.46745 8.201175
88 1 4.0 8.201175 8.201175 5.46745
89 2 -2.0 6.8343125 6.8343125 9.5680375
90 2 -2.0 6.8343125 9.5680375 9.5680375
91 2 -2.0 6.8343125 9.5680375 6.8343125
92 2 -2.0 6.8343125 6.8343125 6.8343125
93 2 -2.0 9.5680375 6.8343125 6.8343125
94 2 -2.0 9.5680375 9.5680375 6.8343125
95 2 -2.0 9.5680375 9.5680375 9.5680375
96 2 -2.0 9.5680375 6.8343125 9.5680375
