 # "Ce32 O64"
  
          96  atoms
           2  atom types
 
0.0 12.903182000000003 xlo xhi
0.0 12.903182000000003 ylo yhi
0.0 12.903182000000003 zlo zhi
 
Masses
 
            1   140.11600000            # Ce
            2   15.99900000             # O
 
Atoms
 
1 1 4.0 0.0 0.0 0.0
2 1 4.0 0.0 3.2257955000000007 3.2257955000000007
3 1 4.0 3.2257955000000007 0.0 3.2257955000000007
4 1 4.0 3.2257955000000007 3.2257955000000007 0.0
5 2 -2.0 1.6128977500000004 1.6128977500000004 4.83869325
6 2 -2.0 1.6128977500000004 4.83869325 4.83869325
7 2 -2.0 1.6128977500000004 4.83869325 1.6128977500000004
8 2 -2.0 1.6128977500000004 1.6128977500000004 1.6128977500000004
9 2 -2.0 4.83869325 1.6128977500000004 1.6128977500000004
10 2 -2.0 4.83869325 4.83869325 1.6128977500000004
11 2 -2.0 4.83869325 4.83869325 4.83869325
12 2 -2.0 4.83869325 1.6128977500000004 4.83869325
13 1 4.0 0.0 0.0 6.451591000000001
14 1 4.0 0.0 3.2257955000000007 9.6773865
15 1 4.0 3.2257955000000007 12.903182000000003 9.6773865
16 1 4.0 3.2257955000000007 3.2257955000000007 6.451591000000001
17 2 -2.0 1.6128977500000004 1.6128977500000004 11.290284250000003
18 2 -2.0 1.6128977500000004 4.83869325 11.290284250000003
19 2 -2.0 1.6128977500000004 4.83869325 8.06448875
20 2 -2.0 1.6128977500000004 1.6128977500000004 8.06448875
21 2 -2.0 4.83869325 1.6128977500000004 8.06448875
22 2 -2.0 4.83869325 4.83869325 8.06448875
23 2 -2.0 4.83869325 4.83869325 11.290284250000003
24 2 -2.0 4.83869325 1.6128977500000004 11.290284250000003
25 1 4.0 0.0 6.451591000000001 0.0
26 1 4.0 0.0 9.6773865 3.2257955000000007
27 1 4.0 3.2257955000000007 6.451591000000001 3.2257955000000007
28 1 4.0 3.2257955000000007 9.6773865 0.0
29 2 -2.0 1.6128977500000004 8.06448875 4.83869325
30 2 -2.0 1.6128977500000004 11.290284250000003 4.83869325
31 2 -2.0 1.6128977500000004 11.290284250000003 1.6128977500000004
32 2 -2.0 1.6128977500000004 8.06448875 1.6128977500000004
33 2 -2.0 4.83869325 8.06448875 1.6128977500000004
34 2 -2.0 4.83869325 11.290284250000003 1.6128977500000004
35 2 -2.0 4.83869325 11.290284250000003 4.83869325
36 2 -2.0 4.83869325 8.06448875 4.83869325
37 1 4.0 0.0 6.451591000000001 6.451591000000001
38 1 4.0 0.0 9.6773865 9.6773865
39 1 4.0 3.2257955000000007 6.451591000000001 9.6773865
40 1 4.0 3.2257955000000007 9.6773865 6.451591000000001
41 2 -2.0 1.6128977500000004 8.06448875 11.290284250000003
42 2 -2.0 1.6128977500000004 11.290284250000003 11.290284250000003
43 2 -2.0 1.6128977500000004 11.290284250000003 8.06448875
44 2 -2.0 1.6128977500000004 8.06448875 8.06448875
45 2 -2.0 4.83869325 8.06448875 8.06448875
46 2 -2.0 4.83869325 11.290284250000003 8.06448875
47 2 -2.0 4.83869325 11.290284250000003 11.290284250000003
48 2 -2.0 4.83869325 8.06448875 11.290284250000003
49 1 4.0 6.451591000000001 0.0 0.0
50 1 4.0 6.451591000000001 3.2257955000000007 3.2257955000000007
51 1 4.0 9.6773865 0.0 3.2257955000000007
52 1 4.0 9.6773865 3.2257955000000007 0.0
53 2 -2.0 8.06448875 1.6128977500000004 4.83869325
54 2 -2.0 8.06448875 4.83869325 4.83869325
55 2 -2.0 8.06448875 4.83869325 1.6128977500000004
56 2 -2.0 8.06448875 1.6128977500000004 1.6128977500000004
57 2 -2.0 11.290284250000003 1.6128977500000004 1.6128977500000004
58 2 -2.0 11.290284250000003 4.83869325 1.6128977500000004
59 2 -2.0 11.290284250000003 4.83869325 4.83869325
60 2 -2.0 11.290284250000003 1.6128977500000004 4.83869325
61 1 4.0 6.451591000000001 0.0 6.451591000000001
62 1 4.0 6.451591000000001 3.2257955000000007 9.6773865
63 1 4.0 9.6773865 12.903182000000003 9.6773865
64 1 4.0 9.6773865 3.2257955000000007 6.451591000000001
65 2 -2.0 8.06448875 1.6128977500000004 11.290284250000003
66 2 -2.0 8.06448875 4.83869325 11.290284250000003
67 2 -2.0 8.06448875 4.83869325 8.06448875
68 2 -2.0 8.06448875 1.6128977500000004 8.06448875
69 2 -2.0 11.290284250000003 1.6128977500000004 8.06448875
70 2 -2.0 11.290284250000003 4.83869325 8.06448875
71 2 -2.0 11.290284250000003 4.83869325 11.290284250000003
72 2 -2.0 11.290284250000003 1.6128977500000004 11.290284250000003
73 1 4.0 6.451591000000001 6.451591000000001 0.0
74 1 4.0 6.451591000000001 9.6773865 3.2257955000000007
75 1 4.0 9.6773865 6.451591000000001 3.2257955000000007
76 1 4.0 9.6773865 9.6773865 0.0
77 2 -2.0 8.06448875 8.06448875 4.83869325
78 2 -2.0 8.06448875 11.290284250000003 4.83869325
79 2 -2.0 8.06448875 11.290284250000003 1.6128977500000004
80 2 -2.0 8.06448875 8.06448875 1.6128977500000004
81 2 -2.0 11.290284250000003 8.06448875 1.6128977500000004
82 2 -2.0 11.290284250000003 11.290284250000003 1.6128977500000004
83 2 -2.0 11.290284250000003 11.290284250000003 4.83869325
84 2 -2.0 11.290284250000003 8.06448875 4.83869325
85 1 4.0 6.451591000000001 6.451591000000001 6.451591000000001
86 1 4.0 6.451591000000001 9.6773865 9.6773865
87 1 4.0 9.6773865 6.451591000000001 9.6773865
88 1 4.0 9.6773865 9.6773865 6.451591000000001
89 2 -2.0 8.06448875 8.06448875 11.290284250000003
90 2 -2.0 8.06448875 11.290284250000003 11.290284250000003
91 2 -2.0 8.06448875 11.290284250000003 8.06448875
92 2 -2.0 8.06448875 8.06448875 8.06448875
93 2 -2.0 11.290284250000003 8.06448875 8.06448875
94 2 -2.0 11.290284250000003 11.290284250000003 8.06448875
95 2 -2.0 11.290284250000003 11.290284250000003 11.290284250000003
96 2 -2.0 11.290284250000003 8.06448875 11.290284250000003
