 # "Ce32 O64"
  
          96  atoms
           2  atom types
 
0.0 12.247088000000002 xlo xhi
0.0 12.247088000000002 ylo yhi
0.0 12.247088000000002 zlo zhi
 
Masses
 
            1   140.11600000            # Ce
            2   15.99900000             # O
 
Atoms
 
1 1 4.0 0.0 0.0 0.0
2 1 4.0 0.0 3.0617720000000004 3.0617720000000004
3 1 4.0 3.0617720000000004 0.0 3.0617720000000004
4 1 4.0 3.0617720000000004 3.0617720000000004 0.0
5 2 -2.0 1.5308860000000002 1.5308860000000002 4.592658
6 2 -2.0 1.5308860000000002 4.592658 4.592658
7 2 -2.0 1.5308860000000002 4.592658 1.5308860000000002
8 2 -2.0 1.5308860000000002 1.5308860000000002 1.5308860000000002
9 2 -2.0 4.592658 1.5308860000000002 1.5308860000000002
10 2 -2.0 4.592658 4.592658 1.5308860000000002
11 2 -2.0 4.592658 4.592658 4.592658
12 2 -2.0 4.592658 1.5308860000000002 4.592658
13 1 4.0 0.0 0.0 6.123544000000001
14 1 4.0 0.0 3.0617720000000004 9.185316
15 1 4.0 3.0617720000000004 12.247088000000002 9.185316
16 1 4.0 3.0617720000000004 3.0617720000000004 6.123544000000001
17 2 -2.0 1.5308860000000002 1.5308860000000002 10.716202000000003
18 2 -2.0 1.5308860000000002 4.592658 10.716202000000003
19 2 -2.0 1.5308860000000002 4.592658 7.654430000000001
20 2 -2.0 1.5308860000000002 1.5308860000000002 7.654430000000001
21 2 -2.0 4.592658 1.5308860000000002 7.654430000000001
22 2 -2.0 4.592658 4.592658 7.654430000000001
23 2 -2.0 4.592658 4.592658 10.716202000000003
24 2 -2.0 4.592658 1.5308860000000002 10.716202000000003
25 1 4.0 0.0 6.123544000000001 0.0
26 1 4.0 0.0 9.185316 3.0617720000000004
27 1 4.0 3.0617720000000004 6.123544000000001 3.0617720000000004
28 1 4.0 3.0617720000000004 9.185316 0.0
29 2 -2.0 1.5308860000000002 7.654430000000001 4.592658
30 2 -2.0 1.5308860000000002 10.716202000000003 4.592658
31 2 -2.0 1.5308860000000002 10.716202000000003 1.5308860000000002
32 2 -2.0 1.5308860000000002 7.654430000000001 1.5308860000000002
33 2 -2.0 4.592658 7.654430000000001 1.5308860000000002
34 2 -2.0 4.592658 10.716202000000003 1.5308860000000002
35 2 -2.0 4.592658 10.716202000000003 4.592658
36 2 -2.0 4.592658 7.654430000000001 4.592658
37 1 4.0 0.0 6.123544000000001 6.123544000000001
38 1 4.0 0.0 9.185316 9.185316
39 1 4.0 3.0617720000000004 6.123544000000001 9.185316
40 1 4.0 3.0617720000000004 9.185316 6.123544000000001
41 2 -2.0 1.5308860000000002 7.654430000000001 10.716202000000003
42 2 -2.0 1.5308860000000002 10.716202000000003 10.716202000000003
43 2 -2.0 1.5308860000000002 10.716202000000003 7.654430000000001
44 2 -2.0 1.5308860000000002 7.654430000000001 7.654430000000001
45 2 -2.0 4.592658 7.654430000000001 7.654430000000001
46 2 -2.0 4.592658 10.716202000000003 7.654430000000001
47 2 -2.0 4.592658 10.716202000000003 10.716202000000003
48 2 -2.0 4.592658 7.654430000000001 10.716202000000003
49 1 4.0 6.123544000000001 0.0 0.0
50 1 4.0 6.123544000000001 3.0617720000000004 3.0617720000000004
51 1 4.0 9.185316 0.0 3.0617720000000004
52 1 4.0 9.185316 3.0617720000000004 0.0
53 2 -2.0 7.654430000000001 1.5308860000000002 4.592658
54 2 -2.0 7.654430000000001 4.592658 4.592658
55 2 -2.0 7.654430000000001 4.592658 1.5308860000000002
56 2 -2.0 7.654430000000001 1.5308860000000002 1.5308860000000002
57 2 -2.0 10.716202000000003 1.5308860000000002 1.5308860000000002
58 2 -2.0 10.716202000000003 4.592658 1.5308860000000002
59 2 -2.0 10.716202000000003 4.592658 4.592658
60 2 -2.0 10.716202000000003 1.5308860000000002 4.592658
61 1 4.0 6.123544000000001 0.0 6.123544000000001
62 1 4.0 6.123544000000001 3.0617720000000004 9.185316
63 1 4.0 9.185316 12.247088000000002 9.185316
64 1 4.0 9.185316 3.0617720000000004 6.123544000000001
65 2 -2.0 7.654430000000001 1.5308860000000002 10.716202000000003
66 2 -2.0 7.654430000000001 4.592658 10.716202000000003
67 2 -2.0 7.654430000000001 4.592658 7.654430000000001
68 2 -2.0 7.654430000000001 1.5308860000000002 7.654430000000001
69 2 -2.0 10.716202000000003 1.5308860000000002 7.654430000000001
70 2 -2.0 10.716202000000003 4.592658 7.654430000000001
71 2 -2.0 10.716202000000003 4.592658 10.716202000000003
72 2 -2.0 10.716202000000003 1.5308860000000002 10.716202000000003
73 1 4.0 6.123544000000001 6.123544000000001 0.0
74 1 4.0 6.123544000000001 9.185316 3.0617720000000004
75 1 4.0 9.185316 6.123544000000001 3.0617720000000004
76 1 4.0 9.185316 9.185316 0.0
77 2 -2.0 7.654430000000001 7.654430000000001 4.592658
78 2 -2.0 7.654430000000001 10.716202000000003 4.592658
79 2 -2.0 7.654430000000001 10.716202000000003 1.5308860000000002
80 2 -2.0 7.654430000000001 7.654430000000001 1.5308860000000002
81 2 -2.0 10.716202000000003 7.654430000000001 1.5308860000000002
82 2 -2.0 10.716202000000003 10.716202000000003 1.5308860000000002
83 2 -2.0 10.716202000000003 10.716202000000003 4.592658
84 2 -2.0 10.716202000000003 7.654430000000001 4.592658
85 1 4.0 6.123544000000001 6.123544000000001 6.123544000000001
86 1 4.0 6.123544000000001 9.185316 9.185316
87 1 4.0 9.185316 6.123544000000001 9.185316
88 1 4.0 9.185316 9.185316 6.123544000000001
89 2 -2.0 7.654430000000001 7.654430000000001 10.716202000000003
90 2 -2.0 7.654430000000001 10.716202000000003 10.716202000000003
91 2 -2.0 7.654430000000001 10.716202000000003 7.654430000000001
92 2 -2.0 7.654430000000001 7.654430000000001 7.654430000000001
93 2 -2.0 10.716202000000003 7.654430000000001 7.654430000000001
94 2 -2.0 10.716202000000003 10.716202000000003 7.654430000000001
95 2 -2.0 10.716202000000003 10.716202000000003 10.716202000000003
96 2 -2.0 10.716202000000003 7.654430000000001 10.716202000000003
