LAMMPS data file via write_data, version 2 Aug 2023, timestep = 651, units = real

84 atoms
2 atom types

0 7.73214 xlo xhi
0 6.696229665618 ylo yhi
0 51.3073 zlo zhi
3.86607 0 0 xy xz yz

Masses

1 140.116
2 15.999

Atoms # charge

1 1 -0.9825776329374702 2.3372029792561744 1.3496633639583673 6.3659705212151065 1 0 0
2 1 -0.9823027299817398 8.105281190756935 4.679908751161198 6.372017785619534 0 0 0
3 1 -0.9884983031651237 6.142422378486127 1.3554656469375628 6.432951017425935 0 0 0
4 1 -0.9884862959939119 4.244905379268586 4.642163217861628 6.432965581640962 1 0 0
5 2 0.4444462980078916 2.2994782025880087 1.3278640436494507 8.623790183073547 1 0 0
6 2 0.1094324509524444 0.3197306037782164 0.1851304021814019 3.352851855785031 1 1 0
7 2 0.6608130042754321 8.098722257597776 2.459038408759245 5.681490069788958 0 0 0
8 2 0.5790198841083003 4.291261663132586 4.663239986576191 8.741833312765179 1 0 0
9 2 0.5700583510281514 8.060095268704089 4.653990141749491 8.72596488147798 0 0 0
10 2 0.7056506083603862 4.250817428435281 2.4544736848623105 5.724404711297634 0 0 0
11 2 0.6607890664425198 6.178636287549631 5.7846693180136795 5.6812775677043446 0 0 0
12 2 0.5790262567485855 6.183822734873562 1.384925658658375 8.741767058934663 0 0 0
13 1 -1.013303081183079 8.10959903612584 4.682174688899067 11.061706452624817 0 0 0
14 1 -1.038305567421475 2.307265338547404 1.332124928696476 12.605741690854751 0 0 0
15 1 -1.015654285792573 4.235125383161295 4.682523821117856 11.065843218622778 0 0 0
16 1 -1.015660937442787 6.172696540644694 1.3265068705221148 11.065742832193555 0 0 0
18 2 0.6371271659709777 4.2255068632964115 2.4396155773864234 11.788523542372012 0 0 0
19 2 0.6350358591199898 6.173720936443228 5.810734054665279 11.797174882205717 0 0 0
22 2 0.6668731287525691 10.035783565295215 5.794166746148223 11.663557010180286 0 0 0
23 2 0.6350304385840783 8.119106091429092 2.4412270208238285 11.796541260673926 0 0 0
45 2 0.6757442113598409 10.030002449317543 5.791069905924655 5.764697259314136 0 0 1
17 2 0.3534969066618665 8.143245162900474 4.702735571891849 15.184766208712057 0 0 0
20 2 0.3540084520331204 6.180984807883608 1.3046248717011766 15.185966565283469 0 0 0
21 2 0.4745965851964296 2.322852781073422 1.3430157538529452 14.980022091614355 0 0 0
24 2 0.3540042686793864 4.219320014671504 4.702375059621838 15.185876991440564 0 0 0
25 1 -0.9822501546634171 2.314176818953797 1.3370401393730564 17.399567817696255 0 0 0
26 1 -0.9811003651783504 8.11879237070058 4.6885337760108845 17.51053443121449 0 0 0
27 1 -0.9807725858659955 6.181191984033002 1.33226847746987 17.51231516205552 0 0 0
28 1 -0.9807803802082774 4.243390727409227 4.688647716472853 17.512190907778866 0 0 0
29 2 0.7051541298985945 6.186461242786879 3.570505935991941 21.90015448146165 0 0 0
30 2 0.6928588971549401 10.046838215062294 5.801645700226073 18.229081125186777 -1 -1 0
31 2 0.6978246537593181 8.129295686301507 2.4450579409049062 18.147370125418757 0 0 0
32 2 0.714539398409638 4.240790614493107 0.22738886584064089 21.99342468680688 0 1 0
33 2 0.7046856539457831 0.3937579928308085 0.22611446580188668 21.942675720901832 1 1 0
34 2 0.6969800918176842 4.23332237674779 2.445184351637975 18.152074404797297 0 0 0
35 2 0.6979421644530471 6.181200501312407 5.819246853970222 18.14713635329218 0 -1 0
36 2 0.7145461807421679 2.318352678010735 3.5571029227777116 21.99346906496735 1 0 0
37 1 -0.9731094393248917 2.3127659742767084 1.334051899261653 22.69313554434895 1 1 0
38 1 -0.9731820187955027 8.115840566928172 4.6844698250511225 22.63357146064335 0 0 0
39 1 -0.9743164083309572 6.188994686062079 1.3407924739050567 22.606345767125788 0 1 0
40 1 -0.9743167883428991 4.2567509119282825 4.6875613293409915 22.60631603682879 1 0 0
42 2 0.3104995223722976 8.071164474617088 4.658849372837856 24.973834396900124 0 0 0
43 2 0.3203283095401435 6.2216227712215995 1.3812650967066296 24.943061031976875 0 0 0
46 2 0.4753884202209304 2.2688390279713095 1.3087028682652648 25.066389607084364 0 0 0
47 2 0.3203345754320527 4.308265611087579 4.695644186821395 24.942976937504266 0 0 0
41 2 0.577771810781033 0.8573546972226443 0.4947480172422769 28.712276255965893 1 0 0
44 2 0.3002090790704859 2.6240398123903708 3.6555195052979856 28.0000123200969 0 0 0
48 2 0.3003594750292943 4.477939070915475 0.44394642762775055 28.000637605169043 0 0 0
49 1 -0.9947091397712015 8.757726578360327 5.056750053929912 32.48911194474918 0 0 0
50 1 -1.039687358151632 2.542790218124809 1.4673527074998962 27.408543981741797 0 0 0
51 1 -0.9706315057712821 4.976228461998252 5.461562144673321 30.439949401398746 0 0 0
52 1 -0.9706363430104724 7.217759157468515 1.579273895293887 30.43947116633558 0 0 0
53 2 0.842330997166027 8.74624579755789 5.049879358886278 34.902813842368424 0 0 0
54 2 0.4681684334452927 5.2871087864239215 3.052744424356794 30.383532831531245 0 0 0
55 2 0.5350606179111264 6.816741985968719 6.105911871841943 31.697368633552237 0 0 0
56 2 0.7403677734772827 6.808231217420787 1.704037915921842 35.14666901587857 0 0 0
57 2 0.7195288523693858 2.9514516159761817 1.7042181027319858 35.14501955058147 0 0 0
58 2 0.6162308071404231 10.67059699699266 6.161527461930679 31.693152593315528 0 0 0
59 2 0.5349759201258675 8.696229335497897 2.8512340700772856 31.696866265892965 0 0 0
60 2 0.7403740176904531 4.879655005029028 5.044373919699539 35.1466398649348 0 0 0
61 1 -0.9636468891015776 4.876551943458872 2.8156772956821134 35.859056854078766 0 0 0
62 1 -0.9568562359567354 10.670053798944313 6.1605650129889495 35.76831116499605 0 0 0
63 1 -0.9593300276267636 8.75033700593163 2.8244570030543645 35.77585332981506 0 0 0
64 1 -0.9593408550885225 6.821018310825922 6.166094862219771 35.77583207535989 0 0 0
66 2 0.2868653875305581 10.604308682731189 6.122542772030248 38.09922161034057 0 -1 0
67 2 0.2860197532189439 8.746754791803568 2.9005722154433595 38.10389270142995 0 0 0
70 2 0.2754185393898603 4.879292537248074 2.8172525852566457 38.19627877297413 0 0 0
71 2 0.2860367608107274 6.8851531483730914 6.124956127594686 38.103824531404115 0 -1 0
65 2 0.6890871803254005 1.0089360796595417 0.5820775990151071 41.76493681783676 0 0 0
68 2 0.6903200690009129 2.9414955903846813 3.930257329315848 41.7819082882771 0 0 0
69 2 0.6899668557957875 6.808363005530298 3.9303894244487525 41.781722232242664 0 0 0
72 2 0.6903172654412629 4.874833483655886 0.5816300619151094 41.78188913073463 0 0 0
73 1 -0.9747277492254792 8.741050072848363 5.046199442332946 42.37448972833445 0 -1 0
74 1 -0.9735375156750886 2.9413782839470235 1.6977461617939649 42.37009056687407 0 0 0
75 1 -0.973908637741834 4.874811549320574 5.046775894562256 42.36919670102559 0 -1 0
76 1 -0.9739056684477859 6.80842825574682 1.6976593875635388 42.36920088160778 0 0 0
77 2 -0.01596136964739417 6.800486289306857 3.925759262273534 47.282977063974535 -1 -1 0
78 2 0.3018188748375608 2.935433015366414 1.6943030210878791 44.725448869193734 0 0 0
79 2 0.3018849326758619 4.874909408934444 5.0534635661299445 44.72490381380902 0 -1 0
80 2 -0.01611029040430016 4.8752328300992005 0.5901620175413653 47.28307909575839 0 0 0
81 2 -0.01742238186309104 1.0081372393994805 0.5815687112908335 47.28912617920257 0 0 0
82 2 0.2999052874597644 8.74084538247551 5.0460858013976395 44.73147494179526 -1 -1 0
83 2 0.3018856283273726 6.814275855122522 1.6943929187852973 44.72490683232303 -1 0 0
84 2 -0.01611031093764024 2.949108766386837 3.9262589731539994 47.283055090287725 0 -1 0

Velocities

1 0.0010936143339974722 0.001982968060293441 -0.001848565575952739
2 -0.0006862228535150307 0.0009433012027394435 -0.0013102775658056154
3 0.0001465424508276009 -0.0005211444809926195 -0.0014483402953495866
4 -0.0006098039808599255 -0.0002603064978130304 0.0002044971034853351
5 -0.00011194991017564714 0.0008512271396984484 0.0035461232289170897
6 -0.005904434153325347 -0.005761187998718213 -0.00013965527864793744
7 -0.0007222032818052138 0.0024083375445556714 -0.0036003192476676466
8 -0.0010738540474342151 0.003124339412930818 0.006543480296178674
9 -0.0026918685631980755 -0.0024490818957576903 0.00704559867369529
10 0.001420173668590838 -0.0007374790217967407 0.00970605442386576
11 0.00547362369520035 -0.007206893034758829 0.0044067700123595396
12 -0.003291534512710158 -6.644956224796973e-05 -0.0047591939134092815
13 0.00010187943588412933 -0.0009299094364907803 0.00032712804452446055
14 -0.001045920310754866 -0.0008663861914781858 0.00017872510074521723
15 -0.0009708596755841052 0.002602477300189853 -0.0016376134545292437
16 0.00048213711679965366 -0.0005352475883512882 -0.0019689382446746316
18 0.000740046038265254 0.0018788935650224845 0.006003478994396618
19 -0.006478104662266512 -0.003276912982199098 0.006589561761505352
22 -0.007238805880209592 0.0010296782693621767 0.005499095231449614
23 -0.003335119839007519 -0.0056547952371523765 0.003518478895479655
45 -0.0016276598218561292 0.0026690007520110814 -0.002738703244314497
17 -0.0030356681080900404 -0.0030958808977379565 -0.003464112617594042
20 -0.004605575037798092 0.007214583925455436 -2.739011804980688e-05
21 -0.003790940381605228 0.0020590438162118737 -0.0032331840379265946
24 -0.005611951801833272 -0.0010822258556376268 -0.004873385688670876
25 0.00011860963504249774 -0.0009124297258309856 -0.0013601101351414587
26 0.002733969413518365 -0.0006242716229031079 -2.8988008667063653e-05
27 -0.00011807463379220529 7.63027064087756e-05 0.0005832919726457964
28 0.0009816080792571353 3.2800322370014795e-05 0.00033720743312548406
29 -0.0036497873304484887 -0.0022606776349187296 -0.003908586139759304
30 -0.00679211798027412 0.0027011182552625036 -0.0032106356886828255
31 -0.00014976722260708517 -0.0017723988178525332 0.002434894109500379
32 0.0034190715280628045 0.004957066501543629 -0.004525188454386535
33 0.0009848383128606528 0.0029942669099137327 -0.0013655495953145925
34 0.001453439741549729 -0.000593948494679568 0.003766002189008437
35 -0.003990806207420284 -0.004681460257760758 0.0014549932935035174
36 0.004724408340642648 0.00015623626373457492 0.0036215067711164147
37 0.0005525611430003695 0.0005794497178478256 -0.0005789488844875201
38 0.000405990826165747 0.0007388851102981174 0.0011531407104860443
39 0.002221859862679717 -6.837053030118922e-05 0.0020569610302349673
40 -0.0004389498825525636 -0.00042241711206417464 -0.0015203937091172362
42 0.008713732638198936 -0.0033587747174775697 -0.0023749955523917135
43 -0.000954381190475191 -0.002173334422848834 -0.004207477702412781
46 -0.0010651196937055147 0.0006771259605389477 0.0030788378665042014
47 0.0026472857228725163 -0.011048321239825657 -0.0065728904045842884
41 0.003980695734573329 -0.0038787029253276664 0.003783096600248652
44 0.004610823748776245 -0.00899291430967759 0.0006679236003518
48 0.002050218724508851 0.007385497567004896 0.0033677398227928697
49 -0.0009545795239799867 0.0012801776724759655 8.609205987060262e-05
50 0.0007974163658876364 -0.000983837482905471 0.0008436727920749626
51 -0.0015395552725119982 5.240585071889738e-05 0.0009579003328128328
52 0.00035809389331970426 0.002011021384528753 -0.0006997101373529377
53 -0.004558697357928157 -0.0034873416166261734 0.0003641347874447146
54 0.0029858725404691153 0.007275168917831832 0.00041127392680153735
55 -0.005813332700729749 0.0009588713734300865 0.003502265363042458
56 -0.0034488457357939777 0.00028701245386044023 -0.0029271896283108033
57 0.008031171872314755 -0.0014050639031430087 0.0029527962968419175
58 0.0021041119798464966 0.004007995376126244 -0.00036584275734486733
59 0.005050913165922941 -5.306403216224566e-05 -0.005132180118388635
60 -0.003985949104213606 -0.001005919292005451 -0.0020298914061239117
61 0.0027780705141939566 6.0086484009451184e-05 -0.0013575873091207177
62 0.0004244914498168128 -0.00024560766353794747 0.0021234868495453316
63 -0.0003277513402182519 -0.0017419617295078625 -0.0012415214370067732
64 0.00013237521981636832 -0.0006605672889420322 5.451663473328184e-05
66 -0.0011800015162087808 0.003699245142638638 -0.0020768601695176194
67 0.0030416703535119972 -0.002504865137847246 0.002857612335120655
70 0.0007184517290370301 -0.005734580563819983 -0.008947394025857406
71 -0.0008873063584083459 0.006183141754354201 -0.0017453748806623487
65 -0.0008404700378254852 -0.0020197532127829666 0.0038496000117459956
68 -0.009549961425143652 0.00011363896467138777 0.0016097428698368954
69 -0.005680094250604297 0.006812579420412411 -0.0026447241302053467
72 0.004992947474128862 0.004907621539076254 -0.0018428967414001486
73 -0.000857164128570791 -0.00109452623539799 0.0021908570262411838
74 0.00033305389556071276 -0.0002532483707162367 0.0012414283119693444
75 -0.0008452163827774635 -0.0004414512788630731 0.0029303957415956396
76 -0.001189201501117649 0.0003044460665697899 -0.0007689208911299931
77 0.003172706491501002 0.0028418631887587 0.004607722155523805
78 0.007101918739149137 -0.001453580513408067 -0.006064383072453488
79 0.0032429990694724502 -0.00459809928320424 -0.007263673335103782
80 -0.003342888023528815 0.006461746410405738 -0.0014475386215306414
81 -0.0026298718073914386 0.005871860811109025 -0.0011284992919089027
82 -0.008402643002965044 -0.002895690841904276 0.0011354021903835364
83 0.001913242011334435 0.00030539039203442717 -0.0012481313623050967
84 -0.0018554814216168777 0.002517957644038502 0.0019259419021340103
