LAMMPS data file via write_data, version 2 Aug 2023, timestep = 861, units = real

84 atoms
2 atom types

0 7.73214 xlo xhi
0 6.696229665618 ylo yhi
0 101.307 zlo zhi
3.86607 0 0 xy xz yz

Masses

1 140.116
2 15.999

Atoms # charge

1 1 -0.9933784314193477 0.6181859228070222 0.7070188268081303 29.77272101667038 1 0 0
2 1 -0.9933782941713315 6.417130697780841 4.055403039362207 29.772720386720938 0 0 0
3 1 -0.9926053613166848 4.488269719317082 0.7095149550780135 29.76989560091391 0 0 0
4 1 -0.9926505509962955 2.555243454129447 4.057636774938598 29.770055220305526 1 0 0
5 2 0.5975556636956032 0.6305595348493181 0.7154511350750092 32.09817629171123 1 0 0
6 2 0.68473781961892 8.35312522151375 5.173067520124114 29.091901043915033 0 0 0
7 2 0.6900639224434867 6.418209712170544 1.8238135483235813 29.105263699841796 0 0 0
8 2 0.596968296685536 2.542586564202169 4.050433078697678 32.098410594674654 1 0 0
9 2 0.5975552597751377 6.430542259620507 4.062086284636411 32.098176414741715 0 0 0
10 2 0.6847385791109537 2.554068189249467 1.8248677380252851 29.091903184428197 0 0 0
11 2 0.6904045874581225 4.485271619715551 5.1719832113992865 29.10614693107103 0 0 0
12 2 0.5969549608242137 4.475787080885469 0.7024222424671557 32.09845172783846 0 0 0
13 1 -1.009329608184012 6.417219872134422 4.055225020867731 34.453560794734 0 0 0
14 1 -1.009329788340642 0.6183034175806776 0.7067916447268132 34.45355972792481 0 0 0
15 1 -1.008615495195603 2.5560206789394972 4.057812789325262 34.45624892326277 0 0 0
16 1 -1.008567392903408 4.489006732774912 0.7096679012128035 34.456456871675584 0 0 0
18 2 0.6431510682390273 2.5545237211268788 1.8247927827214223 35.078654834792985 0 0 0
19 2 0.6499306834398525 4.485912917261407 5.172010986676262 35.06429269118093 0 0 0
22 2 0.6431502712876445 8.353597789205175 5.172965245539203 35.07865691364883 0 0 0
23 2 0.6495034273408959 6.418824660493218 1.8238261049214641 35.06531969515117 0 0 0
17 2 0.3012789243673731 10.302103242235741 6.285429104654521 38.77088373492963 0 0 0
20 2 0.2971682202779732 8.372058714517252 2.9401270487872586 38.77967049208683 0 0 0
21 2 0.3012833485215547 4.501424886240298 2.940035203850934 38.77087417805453 0 0 0
24 2 0.2969659012198884 6.43837738625859 6.28786495046538 38.77861400528054 0 0 0
25 1 -0.9719011313692488 4.508726005657984 2.942580816279142 41.11689448728009 0 0 0
26 1 -0.9718886768028221 10.308200818787066 6.290062368818915 41.11690326531866 0 0 0
27 1 -0.9645031894813599 8.3658216678533 2.936246332788758 41.132961534771674 0 0 0
28 1 -0.964595062831476 6.433410441027096 6.284719126393989 41.13200119649061 0 0 0
29 2 0.5194652674320479 4.162549719494976 2.7571808574099324 47.04347969757506 0 0 0
30 2 0.6993885438466678 0.6362452867014621 0.7051254383024064 41.785433267018625 1 0 0
31 2 0.6992652492832672 2.573305596003827 4.05691275289365 41.797078881911496 1 0 0
32 2 0.4622235253055734 6.551687016763653 6.3148378822042 45.469564295406116 0 0 0
33 2 0.5194131857526618 10.009099245846025 6.023520137434572 47.043087319238424 0 0 0
34 2 0.6993923333957656 6.435173314500247 4.053513016712481 41.785431936963796 0 0 0
35 2 0.6996511752147768 4.507828173166784 0.7096660197166462 41.79260472923696 0 0 0
36 2 0.4638706285936557 8.426899789761109 2.93316801888272 45.491500470152474 0 0 0
37 1 -0.9858088956320624 10.932171077724398 6.580827107659515 49.15354864373 0 -1 0
38 1 -0.9854558851296943 5.107938339022216 3.277060061719677 49.15308802199843 0 0 0
39 1 -0.9961965022248755 8.008224552215202 4.919132729671686 46.61002498336087 0 -1 0
40 1 -0.9961800928003367 2.2054636128846274 1.577155300262575 46.61069524183867 1 0 0
42 2 0.5415110023265143 7.073694045074555 4.415557404049444 48.73579728693928 0 0 0
43 2 0.5109575956981667 5.5707426059729075 1.2821132269615971 50.25492881900604 0 0 0
46 2 0.5416319308399883 1.3027500388853237 1.0187472025684492 48.736799279401545 0 0 0
47 2 0.6624224908046918 3.6238937101605555 4.622464653645921 50.397148263339076 0 0 0
41 2 0.5782582368524264 5.828711533342519 5.829431705402402 53.23816264855034 0 -1 0
44 2 0.6626581861658183 3.796004450040578 2.5355290440146683 53.678952035566255 1 0 0
48 2 0.664315193563659 9.691112281057922 5.820807916470245 53.70411331888697 0 -1 0
49 1 -1.022898440436414 3.789872573650163 4.6981695823644705 52.69046389503382 1 0 0
50 1 -0.9565270831500892 3.627600220571123 0.1319332184654691 53.9807623927988 0 0 0
51 1 -0.9632357470927511 3.645941751278667 2.4329634989701208 56.166428222628234 0 0 0
52 1 -0.9639720529012603 9.493695473507687 5.72259380455767 56.19020927978149 0 -1 0
53 2 0.2718813363339789 9.17215984061108 5.607993914328285 60.538515708717796 0 0 0
54 2 0.5586502763305767 3.5558931776456832 0.10415125161533934 56.454918508412774 0 0 0
55 2 0.3156869308680565 5.310665746094582 3.3537049330604978 56.93278562321201 0 0 0
56 2 0.2370162957150893 7.219707321872852 2.3407603988314696 60.570309700156656 0 0 0
57 2 0.2957936086175814 3.456683815992681 2.2859249667892576 60.612647011053596 0 0 0
58 2 0.4191764175754025 9.327313497373629 3.4357560185376137 56.70051737306938 0 0 0
59 2 0.3139741599611036 11.106156850489729 6.695665171816986 56.99019178582701 0 -1 0
60 2 0.2436266233340169 5.352312868325195 5.5483811806576 60.571743150842984 0 0 0
61 1 -0.9463555885437802 3.394404975245492 2.25869243279982 62.92030124602283 0 0 0
62 1 -0.9492322889651463 9.19486232657881 5.616133388292733 62.885778655138495 0 0 0
63 1 -0.9531619753320419 7.269490457179856 2.2828147518452053 62.920507671740395 0 0 0
64 1 -0.9483665530524584 5.335457058354381 5.617197302598296 62.9160295576779 0 0 0
66 2 0.7319365354272921 7.252557178646315 0.06772699773291505 63.496271966881096 0 0 0
67 2 0.7178886529943033 9.221720970383506 3.379241804322114 63.58361081994725 -1 0 0
70 2 0.8444533143919065 5.3331753400061785 3.384666914375646 63.73692928976001 0 0 0
71 2 0.7121286990884726 3.3907760339937303 0.010643206761301602 63.57545108923143 0 0 0
65 2 0.4208741421072554 3.7414611989546906 1.8593531910978718 66.64744186121648 0 0 0
68 2 0.5591510975360313 4.160595376741809 5.452951410613891 66.9174071047232 0 0 0
69 2 0.5391731893249004 8.704482712355617 4.053881449702589 70.56816216634927 0 0 0
72 2 0.488832573326279 7.119050625498366 2.9591971356744446 67.24180137237643 0 0 0
73 1 -0.9817118078066944 9.640976541473659 5.858753950543997 71.7895066831868 0 -1 0
74 1 -1.017130317597245 5.006687429654338 3.291543228352284 66.15747852734673 0 0 0
75 1 -0.9920137602340622 3.959772986263629 5.909365251210427 68.8900078477547 0 -1 0
76 1 -0.9868009228554068 6.9717796847769975 2.8411161427907525 69.57068459962967 -1 0 0
77 2 0.04230117287319697 6.729508678139311 0.6946275041254909 75.54463922100565 0 0 0
78 2 0.5223305810628237 4.98349505430306 3.9152302845326066 70.13371891560693 0 0 0
79 2 0.2588851504480204 4.139765840754626 0.3200477840061932 72.92391535879477 0 0 0
80 2 0.02841804239383917 1.4339101150150724 2.243550454863475 74.08979491384025 1 0 0
81 2 0.04106338649599041 6.143642314267334 3.34577738944949 73.91649573757954 0 0 0
82 2 0.75869396216104 6.972688722495033 0.5174667823951858 70.23394209291544 -1 0 0
83 2 0.2255655466899084 3.380499600786055 5.068119786489945 73.42887176918745 0 0 0
84 2 0.01422244728204612 5.786817966564532 6.13507077308984 75.46166324101533 0 -1 0
45 2 0.1182312750455744 5.799104999999994 3.348114832809 91.83676576 0 0 0

Velocities

1 0.0008599337707555126 0.0019139067036149666 -0.0018420406449386304
2 -0.0006464596698440606 0.0010321600325240278 -0.0012967341816827902
3 -8.342384569686927e-05 -0.00027269954911132173 -0.001451851306150517
4 -0.0005703404999679472 -0.00047441286193980687 0.00022056610132214835
5 -0.00034608885161203223 0.0007771536405898807 0.0035314910403553587
6 -0.005757111825745099 -0.0058030312895965205 -0.00012201532478736098
7 -0.0008616683531296873 0.002488297438424709 -0.0035867029701353455
8 -0.0010377570465178953 0.0028875083487644847 0.006534688800621321
9 -0.0026494259642642097 -0.002356369325938786 0.0070263716276497525
10 0.0012723065323919024 -0.00033749617728014354 0.00965901887891833
11 0.005576323072477187 -0.006935380944564045 0.004398113281185509
12 -0.0035132036242693132 0.00017076147577949993 -0.004749720277935128
13 0.0002204595366169058 -0.0010001508927551756 0.00034293734773185175
14 -0.0011893022261195174 -0.0004753484453693486 0.00016905424040122638
15 -0.0008480724610629439 0.002826067933349199 -0.0016225650660204203
16 0.000332762400944947 -0.0004531940693622168 -0.00196171998641694
18 0.0006767486562879694 0.002102177915964368 0.005979651411630497
19 -0.006246630088522606 -0.0031872511471047883 0.006581031509659856
22 -0.007004347956135083 0.0007947647783700686 0.005503307938854094
23 -0.003382435062444164 -0.00570965049932637 0.003512863412916051
17 -0.0029099694514279793 -0.003167078407191892 -0.0034334346658082904
20 -0.004740182959363167 0.007256793174191492 -2.7786305659719033e-05
21 -0.003928743171948673 0.0024291578347048585 -0.0032294739281646515
24 -0.005476149366410033 -0.0008536350492332501 -0.004845647111245851
25 5.25630175061501e-05 -0.0006876488967252105 -0.0013550588814526655
26 0.002924129272844293 -0.0008621492350108581 -3.0950297275944193e-06
27 -0.00018319301291507196 -1.0479671001082513e-05 0.0005891878307637484
28 0.0011786404236568218 0.00010003133130078047 0.00035319792991643197
29 -0.003706237399440005 -0.002040056384990625 -0.0038935401646850655
30 -0.0070104272768611925 0.0034055055364966133 -0.0031399863141514115
31 -0.0001276632665120543 -0.0020089234932270513 0.0024422158416718856
32 0.0036013620141769373 0.0049955381192581345 -0.0044901284069804905
33 0.0011766754781387483 0.0027327507647053034 -0.001334414832403516
34 0.0014692561725117318 -0.0005274093128721112 0.0037596372036853617
35 -0.004220101807442315 -0.004445047721949487 0.001440095865778507
36 0.004635115995558242 5.969320444143132e-05 0.003615487229456292
37 0.0009970765863661388 7.578678340054799e-05 -0.0006519119684831309
38 0.0004207287755244036 0.0007907464766724268 0.0011570229562333318
39 0.002659828579459854 -0.0002618072621091571 0.0019651940015146356
40 -0.00042089820885215986 -0.0006736868550215882 -0.0014975599612647118
42 0.00878298307433511 -0.0034478390458716705 -0.0023485889461485948
43 -0.0011136774409563441 -0.0021132050844718535 -0.004191480245076943
46 -0.001223981645223514 0.001033761796061855 0.0030577932207968743
47 0.002740327808060289 -0.010799542824535659 -0.006538486637415264
41 0.003709774257629315 -0.004161257167508684 0.003691819777696217
44 0.004603894514906742 -0.008415398086885654 0.0007409577316045353
48 0.0017868682742575117 0.007555694960381634 0.003345340904527401
49 -0.0008525879817213603 0.001163480320721253 0.00010284666823531788
50 0.0006260733504164641 -0.0006301273933772218 0.0008313941116460686
51 -0.0014352695475287843 0.00024820918030557396 0.0009627695251630256
52 0.0001884738313720202 0.002045300555721672 -0.0006974695917691231
53 -0.004447753543996931 -0.0035947887039019756 0.00037979895603667266
54 0.0028930355567005094 0.007439501644965342 0.00040937809127557695
55 -0.005605197081959015 0.000994132847575126 0.003505843001277549
56 -0.0036087180909423824 0.00031860572140231887 -0.0029162132590960896
57 0.007826276696749306 -0.0010591490250222762 0.0029322459663133392
58 0.002281196627949407 0.003723613112624764 -0.00033862868715152773
59 0.004949977418162193 -0.00016767668362791956 -0.00510386907918494
60 -0.0038772515186986994 -0.0008154125730096691 -0.002013304565291136
61 0.002680865986579511 0.00024326843266931418 -0.0013525459495581143
62 0.0006029807943650675 -0.0005227551611248665 0.0021409381612067777
63 -0.0004127753238325062 -0.00185939798535 -0.0012284689481899822
64 0.00031201019819665867 -0.0006284018265655622 7.161580029844603e-05
66 -0.001441052473468821 0.003557316036494607 -0.0020694399030746703
67 0.003030526170161968 -0.002965547979313938 0.0027875609712464753
70 0.0007164188431161433 -0.005685668914969819 -0.008903899074182795
71 -0.0011495052199640451 0.006339156750717585 -0.00174772096861658
65 -0.000928669630712082 -0.0018378651125230373 0.00383421960301273
68 -0.009337540259091684 0.00013331746007671616 0.00162074268312916
69 -0.005482850093925036 0.0064983001730598905 -0.002608572646298497
72 0.004881870136797619 0.00475465601325809 -0.0018274857533843822
73 -0.0011246676144301784 -0.0012271055774598209 0.0021815399782082676
74 0.000327346067997378 -0.00023528429517848093 0.0012449643076530583
75 -0.0011127667258135213 -0.00026890632432627045 0.002909712017914393
76 -0.0011889392828419324 -0.0001767051028604825 -0.000824749563040129
77 0.0028842120767365058 0.003489008904459469 0.004647709162348807
78 0.007156758631388162 -0.0015879049953544308 -0.006023507269608501
79 0.0030465095308234804 -0.004566248681100767 -0.007235689959990884
80 -0.0033393657972460634 0.006136239128632494 -0.0014249905998535335
81 -0.0026291459183748356 0.0058563525214097205 -0.0011156688135376847
82 -0.008553460168141505 -0.002562831263810109 0.0011219793932155581
83 0.001988431076239668 0.00047185305700563426 -0.0012346104612002541
84 -0.002124256075561882 0.002669445611007268 0.0019091974881624762
45 -0.0016977188573404287 0.0025442083266048778 -0.002719557799724693
