ITEM: TIMESTEP
0
ITEM: NUMBER OF ATOMS
84
ITEM: BOX BOUNDS xy xz yz pp pp ss
0.0000000000000000e+00 1.1598210000000000e+01 3.8660700000000001e+00
0.0000000000000000e+00 6.6962296656179996e+00 0.0000000000000000e+00
3.9989925180000000e+01 9.1846896460000011e+01 0.0000000000000000e+00
ITEM: ATOMS id xu yu zu 
1 7.73214 0 40.0001 
2 5.7991 3.34811 40.0001 
3 3.86607 0 40.0001 
4 9.66517 3.34811 40.0001 
5 7.73214 0 42.3676 
6 7.73218 4.46418 40.7892 
7 5.79914 1.11606 40.7892 
8 9.66517 3.34811 42.3676 
9 5.7991 3.34811 42.3676 
10 1.93307 1.11606 40.7892 
11 3.86611 4.46418 40.7892 
12 3.86607 0 42.3676 
13 7.73218 4.46418 43.1568 
14 1.93307 1.11606 43.1568 
15 3.86611 4.46418 43.1568 
16 5.79914 1.11606 43.1568 
17 7.73218 4.46418 45.5243 
18 3.86603 2.23205 43.946 
19 5.79907 5.58017 43.946 
20 5.79914 1.11606 45.5243 
21 1.93307 1.11606 45.5243 
22 9.66514 5.58017 43.946 
23 7.7321 2.23205 43.946 
24 3.86611 4.46418 45.5243 
25 3.86603 2.23205 46.3135 
26 9.66514 5.58017 46.3135 
27 7.7321 2.23205 46.3135 
28 5.79907 5.58017 46.3135 
29 3.86603 2.23205 48.6811 
30 7.73214 0 47.1027 
31 9.66517 3.34811 47.1027 
32 5.79907 5.58017 48.6811 
33 9.66514 5.58017 48.6811 
34 5.7991 3.34811 47.1027 
35 3.86607 0 47.1027 
36 7.7321 2.23205 48.6811 
37 7.73214 0 49.4702 
38 5.7991 3.34811 49.4702 
39 3.86607 0 49.4702 
40 9.66517 3.34811 49.4702 
41 0 0 51.8368 
42 7.73218 4.46418 50.2594 
43 5.79914 1.11606 50.2594 
44 9.66517 3.34811 51.8368 
45 5.7991 3.34811 91.8368 
46 1.93307 1.11606 50.2594 
47 3.86611 4.46418 50.2594 
48 3.86607 0 51.8368 
49 7.73218 4.46418 52.6259 
50 1.93307 1.11606 52.6259 
51 3.86611 4.46418 52.6259 
52 5.79914 1.11606 52.6259 
53 7.73218 4.46418 54.9935 
54 3.86603 2.23205 53.4151 
55 5.79907 5.58017 53.4151 
56 5.79914 1.11606 54.9935 
57 1.93307 1.11606 54.9935 
58 9.66514 5.58017 53.4151 
59 7.7321 2.23205 53.4151 
60 3.86611 4.46418 54.9935 
61 3.86603 2.23205 55.7827 
62 9.66514 5.58017 55.7827 
63 7.7321 2.23205 55.7827 
64 5.79907 5.58017 55.7827 
65 3.86603 2.23205 58.1502 
66 7.73214 0 56.5719 
67 1.93304 3.34811 56.5719 
68 5.79907 5.58017 58.1502 
69 9.66514 5.58017 58.1502 
70 5.7991 3.34811 56.5719 
71 3.86607 0 56.5719 
72 7.7321 2.23205 58.1502 
73 7.73214 0 58.9394 
74 5.7991 3.34811 58.9394 
75 3.86607 0 58.9394 
76 1.93304 3.34811 58.9394 
77 7.73214 0 61.3069 
78 7.73218 4.46418 59.7286 
79 5.79914 1.11606 59.7286 
80 9.66517 3.34811 61.3069 
81 5.7991 3.34811 61.3069 
82 1.93307 1.11606 59.7286 
83 3.86611 4.46418 59.7286 
84 3.86607 0 61.3069 
ITEM: TIMESTEP
22
ITEM: NUMBER OF ATOMS
84
ITEM: BOX BOUNDS xy xz yz pp pp ss
0.0000000000000000e+00 1.1598210000000000e+01 3.8660700000000001e+00
0.0000000000000000e+00 6.6962296656179996e+00 0.0000000000000000e+00
3.9989925180000000e+01 9.1846896460000011e+01 0.0000000000000000e+00
ITEM: ATOMS id xu yu zu 
1 7.73238 0.000135246 40.1178 
2 5.79982 3.34852 40.1198 
3 3.8673 4.61428e-05 40.1183 
4 9.66583 3.34915 40.1183 
5 7.73431 0.00124588 42.3712 
6 7.7306 4.46321 40.7386 
7 5.79759 1.11741 40.7384 
8 9.6681 3.35106 42.3714 
9 5.80172 3.34962 42.3734 
10 1.93213 1.11552 40.7372 
11 3.86651 4.46214 40.7384 
12 3.87008 0.00105609 42.3714 
13 7.73637 4.46666 43.2061 
14 1.93855 1.11921 43.2005 
15 3.86928 4.46746 43.2066 
16 5.80357 1.11714 43.2066 
17 7.7225 4.45802 45.5486 
18 3.86886 2.23368 43.9713 
19 5.80313 5.58348 43.971 
20 5.79508 1.11779 45.5488 
21 1.92927 1.11389 45.5469 
22 9.66801 5.58174 43.9755 
23 7.73686 2.23394 43.9709 
24 3.86557 4.45963 45.5486 
25 3.85405 2.22524 46.3508 
26 9.65641 5.57526 46.3566 
27 7.73203 2.22189 46.352 
28 5.79055 5.58496 46.3523 
29 3.85827 2.22776 48.7162 
30 7.72577 -0.00628664 47.131 
31 9.66203 3.34918 47.1315 
32 5.80061 5.59076 48.715 
33 9.66804 5.581 48.7307 
34 5.79615 3.34663 47.1379 
35 3.86538 -0.00284464 47.1315 
36 7.74146 2.22904 48.7148 
37 7.72447 0.000189838 49.5172 
38 5.79895 3.34953 49.4605 
39 3.87178 -0.00452726 49.518 
40 9.66586 3.35526 49.5183 
41 0.00919277 0.00294575 51.8742 
42 7.67844 4.43329 50.3368 
43 5.79936 1.17836 50.3358 
44 9.66551 3.34243 51.8743 
45 5.7991 3.34811 91.8368 
46 1.93293 1.115 50.2901 
47 3.91966 4.43438 50.3354 
48 3.86089 0.00373447 51.8742 
49 7.75557 4.47819 52.6773 
50 1.93751 1.11882 52.6643 
51 3.84338 4.47917 52.676 
52 5.80054 1.0891 52.6773 
53 7.74038 4.46845 55.0378 
54 3.92279 2.26449 53.411 
55 5.79921 5.51564 53.4105 
56 5.79808 1.10245 55.0379 
57 1.92765 1.11257 54.9951 
58 9.6624 5.58219 53.4475 
59 7.67611 2.26415 53.4104 
60 3.85462 4.46904 55.0374 
61 3.86403 2.22876 55.8104 
62 9.66501 5.57537 55.8479 
63 7.72483 2.2311 55.8119 
64 5.79637 5.57452 55.8122 
65 3.85573 2.22606 58.1639 
66 7.73995 0.0040594 56.6002 
67 1.93193 3.33439 56.6 
68 5.78314 5.56623 58.1641 
69 9.64734 5.57355 58.1695 
70 5.79621 3.3464 56.5783 
71 3.85454 0.00489047 56.5995 
72 7.71189 2.22525 58.1641 
73 7.71047 -0.0120883 59.0111 
74 5.77427 3.33379 59.0037 
75 3.83813 -0.0121351 59.0105 
76 1.90813 3.33076 59.0111 
77 7.79371 0.0355043 60.8676 
78 7.72176 4.45797 59.5312 
79 5.78723 1.10969 59.5335 
80 9.72484 3.38388 60.8685 
81 5.85967 3.38313 60.8635 
82 1.92256 1.11034 59.5337 
83 3.85391 4.45733 59.5329 
84 3.92682 0.033753 60.868 
