ITEM: TIMESTEP
0
ITEM: NUMBER OF ATOMS
84
ITEM: BOX BOUNDS xy xz yz pp pp ss
0.0000000000000000e+00 1.1598210000000000e+01 3.8660700000000001e+00
0.0000000000000000e+00 6.6962296656179996e+00 0.0000000000000000e+00
3.9989925180000000e+01 6.1317074819999995e+01 0.0000000000000000e+00
ITEM: ATOMS id xu yu zu 
1 7.73214 0 40.0001 
2 5.7991 3.34811 40.0001 
3 3.86607 0 40.0001 
4 9.66517 3.34811 40.0001 
5 7.73214 0 42.3676 
6 7.73218 4.46418 40.7892 
7 5.79914 1.11606 40.7892 
8 9.66517 3.34811 42.3676 
9 5.7991 3.34811 42.3676 
10 1.93307 1.11606 40.7892 
11 3.86611 4.46418 40.7892 
12 3.86607 0 42.3676 
13 7.73218 4.46418 43.1568 
14 1.93307 1.11606 43.1568 
15 3.86611 4.46418 43.1568 
16 5.79914 1.11606 43.1568 
17 7.73218 4.46418 45.5243 
18 3.86603 2.23205 43.946 
19 5.79907 5.58017 43.946 
20 5.79914 1.11606 45.5243 
21 1.93307 1.11606 45.5243 
22 9.66514 5.58017 43.946 
23 7.7321 2.23205 43.946 
24 3.86611 4.46418 45.5243 
25 3.86603 2.23205 46.3135 
26 9.66514 5.58017 46.3135 
27 7.7321 2.23205 46.3135 
28 5.79907 5.58017 46.3135 
29 3.86603 2.23205 48.6811 
30 7.73214 0 47.1027 
31 9.66517 3.34811 47.1027 
32 5.79907 5.58017 48.6811 
33 9.66514 5.58017 48.6811 
34 5.7991 3.34811 47.1027 
35 3.86607 0 47.1027 
36 7.7321 2.23205 48.6811 
37 7.73214 0 49.4702 
38 5.7991 3.34811 49.4702 
39 3.86607 0 49.4702 
40 9.66517 3.34811 49.4702 
41 0 0 51.8368 
42 7.73218 4.46418 50.2594 
43 5.79914 1.11606 50.2594 
44 9.66517 3.34811 51.8368 
45 5.7991 3.34811 51.8368 
46 1.93307 1.11606 50.2594 
47 3.86611 4.46418 50.2594 
48 3.86607 0 51.8368 
49 7.73218 4.46418 52.6259 
50 1.93307 1.11606 52.6259 
51 3.86611 4.46418 52.6259 
52 5.79914 1.11606 52.6259 
53 7.73218 4.46418 54.9935 
54 3.86603 2.23205 53.4151 
55 5.79907 5.58017 53.4151 
56 5.79914 1.11606 54.9935 
57 1.93307 1.11606 54.9935 
58 9.66514 5.58017 53.4151 
59 7.7321 2.23205 53.4151 
60 3.86611 4.46418 54.9935 
61 3.86603 2.23205 55.7827 
62 9.66514 5.58017 55.7827 
63 7.7321 2.23205 55.7827 
64 5.79907 5.58017 55.7827 
65 3.86603 2.23205 58.1502 
66 7.73214 0 56.5719 
67 1.93304 3.34811 56.5719 
68 5.79907 5.58017 58.1502 
69 9.66514 5.58017 58.1502 
70 5.7991 3.34811 56.5719 
71 3.86607 0 56.5719 
72 7.7321 2.23205 58.1502 
73 7.73214 0 58.9394 
74 5.7991 3.34811 58.9394 
75 3.86607 0 58.9394 
76 1.93304 3.34811 58.9394 
77 7.73214 0 61.3069 
78 7.73218 4.46418 59.7286 
79 5.79914 1.11606 59.7286 
80 9.66517 3.34811 61.3069 
81 5.7991 3.34811 61.3069 
82 1.93307 1.11606 59.7286 
83 3.86611 4.46418 59.7286 
84 3.86607 0 61.3069 
ITEM: TIMESTEP
9
ITEM: NUMBER OF ATOMS
84
ITEM: BOX BOUNDS xy xz yz pp pp ss
0.0000000000000000e+00 1.1598210000000000e+01 3.8660700000000001e+00
0.0000000000000000e+00 6.6962296656179996e+00 0.0000000000000000e+00
3.9989925180000000e+01 6.1317074819999995e+01 0.0000000000000000e+00
ITEM: ATOMS id xu yu zu 
1 7.73183 -0.00018303 40.0999 
2 5.79879 3.34793 40.0999 
3 3.86575 -0.000187703 40.0999 
4 9.66486 3.34793 40.0999 
5 7.73471 0.00148565 42.3485 
6 7.73027 4.46308 40.7139 
7 5.79723 1.11497 40.714 
8 9.66775 3.3496 42.3485 
9 5.80168 3.3496 42.3485 
10 1.93117 1.11496 40.7139 
11 3.8642 4.46307 40.7139 
12 3.86864 0.00148705 42.3485 
13 7.73476 4.46566 43.1826 
14 1.93565 1.11755 43.1826 
15 3.86868 4.46566 43.1826 
16 5.80172 1.11754 43.1826 
17 7.72982 4.46281 45.5201 
18 3.86982 2.23425 43.9463 
19 5.80286 5.58236 43.9463 
20 5.79678 1.1147 45.5201 
21 1.93071 1.1147 45.5201 
22 9.66893 5.58236 43.9463 
23 7.73589 2.23424 43.9463 
24 3.86375 4.46281 45.5201 
25 3.85704 2.22687 46.3251 
26 9.65615 5.57498 46.3251 
27 7.72312 2.22687 46.3251 
28 5.79007 5.57498 46.3251 
29 3.86685 2.23252 48.6894 
30 7.72904 -0.00178799 47.0977 
31 9.66209 3.34631 47.0977 
32 5.79988 5.58064 48.6894 
33 9.66595 5.58064 48.6894 
34 5.796 3.34631 47.0977 
35 3.86297 -0.00177912 47.0977 
36 7.73291 2.23252 48.6894 
37 7.74135 0.00534777 49.4737 
38 5.80832 3.35343 49.4737 
39 3.87533 0.00535132 49.4737 
40 9.6744 3.35346 49.4737 
41 -0.00315998 -0.00181575 51.8426 
42 7.73021 4.46302 50.2687 
43 5.79719 1.11491 50.2687 
44 9.66203 3.34628 51.8426 
45 5.79595 3.34628 51.8426 
46 1.93108 1.11491 50.2687 
47 3.86413 4.46304 50.2687 
48 3.86291 -0.00181641 51.8426 
49 7.74196 4.46984 52.6511 
50 1.94287 1.12171 52.6511 
51 3.8759 4.46983 52.6511 
52 5.80894 1.12171 52.6511 
53 7.72808 4.4618 55.0199 
54 3.86672 2.23247 53.4339 
55 5.79976 5.58057 53.4339 
56 5.79505 1.11369 55.0199 
57 1.92897 1.11369 55.0198 
58 9.66584 5.58056 53.4339 
59 7.7328 2.23246 53.4339 
60 3.86201 4.46181 55.0198 
61 3.86228 2.22988 55.8459 
62 9.66138 5.578 55.8459 
63 7.72835 2.22989 55.8459 
64 5.79532 5.578 55.8459 
65 3.86527 2.23166 58.2655 
66 7.73268 0.000306372 56.6111 
67 1.93358 3.34842 56.6111 
68 5.79831 5.57977 58.2654 
69 9.6644 5.57973 58.2654 
70 5.79964 3.34842 56.6111 
71 3.86661 0.000311949 56.6111 
72 7.73138 2.23164 58.2654 
73 7.72165 -0.00607519 59.0546 
74 5.78859 3.34204 59.0546 
75 3.85557 -0.00604578 59.0546 
76 1.92256 3.34203 59.0546 
77 7.7449 0.00735884 60.9312 
78 7.73032 4.4631 59.6403 
79 5.79728 1.11498 59.6403 
80 9.67794 3.35547 60.9312 
81 5.81186 3.35548 60.9312 
82 1.93121 1.11499 59.6403 
83 3.86425 4.4631 59.6403 
84 3.87883 0.00736909 60.9312 
