ITEM: TIMESTEP
0
ITEM: NUMBER OF ATOMS
63
ITEM: BOX BOUNDS pp pp pp
0.0000000000000000e+00 1.5464300000000000e+01
0.0000000000000000e+00 5.4674500000000004e+00
0.0000000000000000e+00 1.0538800000000001e+02
ITEM: ATOMS id type xs ys zs
2 1 0.25 0 0.72928
3 1 0.375 0.5 0.74762
5 2 0.25 0.25 0.74762
6 2 0.375 0.75 0.72928
7 2 0.25 0.75 0.74762
9 2 0.375 0.25 0.72928
1 1 0.5 0 0.72928
4 2 0.5 0.75 0.74762
8 2 0.5 0.25 0.74762
32 1 0.75 0 0.72928
33 1 0.625 0.5 0.74762
34 1 0.875 0.5 0.74762
35 2 0.75 0.25 0.74762
36 2 0.875 0.75 0.72928
37 2 0.625 0.25 0.72928
38 2 0.75 0.75 0.74762
39 2 0.625 0.75 0.72928
40 2 0.875 0.25 0.72928
10 1 0.25 0 0.76596
12 1 0.375 0.5 0.7843
13 2 0.25 0.75 0.7843
15 2 0.375 0.25 0.76596
17 2 0.25 0.25 0.7843
18 2 0.375 0.75 0.76596
20 1 0.25 0 0.80264
21 1 0.375 0.5 0.82099
23 2 0.25 0.25 0.82099
24 2 0.375 0.75 0.80264
25 2 0.25 0.75 0.82099
27 2 0.375 0.25 0.80264
11 1 0.5 0 0.76596
14 2 0.5 0.25 0.7843
16 2 0.5 0.75 0.7843
19 1 0.5 0 0.80264
22 2 0.5 0.75 0.82099
26 2 0.5 0.25 0.82099
41 1 0.75 0 0.76596
42 1 0.875 0.5 0.7843
43 1 0.625 0.5 0.7843
44 2 0.75 0.75 0.7843
45 2 0.625 0.75 0.76596
46 2 0.875 0.25 0.76596
47 2 0.75 0.25 0.7843
48 2 0.875 0.75 0.76596
49 2 0.625 0.25 0.76596
50 1 0.75 0 0.80264
51 1 0.625 0.5 0.82099
52 1 0.875 0.5 0.82099
53 2 0.75 0.25 0.82099
54 2 0.875 0.75 0.80264
55 2 0.625 0.25 0.80264
56 2 0.75 0.75 0.82099
57 2 0.625 0.75 0.80264
58 2 0.875 0.25 0.80264
28 1 0.25 0 0.83933
30 2 0.375 0.25 0.83933
31 2 0.375 0.75 0.83933
29 1 0.5 0 0.83933
59 1 0.75 0 0.83933
60 2 0.625 0.75 0.83933
61 2 0.875 0.25 0.83933
62 2 0.875 0.75 0.83933
63 2 0.625 0.25 0.83933
ITEM: TIMESTEP
1
ITEM: NUMBER OF ATOMS
63
ITEM: BOX BOUNDS pp pp pp
0.0000000000000000e+00 1.5464300000000000e+01
0.0000000000000000e+00 5.4674500000000004e+00
0.0000000000000000e+00 1.0538800000000001e+02
ITEM: ATOMS id type xs ys zs
2 1 0.249018 8.96172e-17 0.729146
3 1 0.375103 0.5 0.747631
5 2 0.243533 0.251106 0.747662
6 2 0.37526 0.748867 0.728333
7 2 0.243533 0.748894 0.747662
9 2 0.37526 0.251133 0.728333
1 1 0.499974 -6.32592e-17 0.729142
4 2 0.500054 0.749947 0.747679
8 2 0.500054 0.250053 0.747679
32 1 0.749945 4.60948e-17 0.729122
33 1 0.625011 0.5 0.74763
34 1 0.875983 0.5 0.747634
35 2 0.749642 0.249979 0.747671
36 2 0.878387 0.749991 0.728794
37 2 0.624979 0.251062 0.728349
38 2 0.749642 0.750021 0.747671
39 2 0.624979 0.748938 0.728349
40 2 0.878387 0.250009 0.728794
10 1 0.24906 -2.53442e-17 0.765959
12 1 0.375073 0.5 0.7843
13 2 0.243616 0.748936 0.7843
15 2 0.375395 0.25005 0.765967
17 2 0.243616 0.251064 0.7843
18 2 0.375395 0.74995 0.765967
20 1 0.24906 1.53789e-16 0.802642
21 1 0.375103 0.5 0.820978
23 2 0.243542 0.251098 0.820947
24 2 0.375395 0.749942 0.802636
25 2 0.243542 0.748902 0.820947
27 2 0.375395 0.250058 0.802636
11 1 0.499966 -2.10357e-16 0.765954
14 2 0.500037 0.250003 0.7843
16 2 0.500037 0.749997 0.7843
19 1 0.499966 -3.06158e-17 0.802647
22 2 0.500054 0.749955 0.820929
26 2 0.500054 0.250045 0.820929
41 1 0.749933 -2.08963e-17 0.765956
42 1 0.875948 0.5 0.7843
43 1 0.625021 0.5 0.7843
44 2 0.749609 0.750061 0.7843
45 2 0.624966 0.750027 0.765965
46 2 0.881394 0.248939 0.765964
47 2 0.749609 0.249939 0.7843
48 2 0.881394 0.751061 0.765964
49 2 0.624966 0.249973 0.765965
50 1 0.749933 -5.53138e-17 0.802645
51 1 0.625011 0.5 0.820979
52 1 0.875983 0.5 0.820974
53 2 0.749643 0.249971 0.820936
54 2 0.881386 0.751053 0.802637
55 2 0.624966 0.249981 0.802638
56 2 0.749643 0.750029 0.820936
57 2 0.624966 0.750019 0.802638
58 2 0.881386 0.248947 0.802637
28 1 0.249018 1.51457e-16 0.839464
30 2 0.37526 0.251134 0.840277
31 2 0.37526 0.748866 0.840277
29 1 0.499974 -1.13948e-16 0.839468
59 1 0.749945 -3.76362e-18 0.839488
60 2 0.624979 0.748938 0.840261
61 2 0.878388 0.250009 0.839816
62 2 0.878388 0.749991 0.839816
63 2 0.624979 0.251062 0.840261
ITEM: TIMESTEP
2
ITEM: NUMBER OF ATOMS
63
ITEM: BOX BOUNDS pp pp pp
0.0000000000000000e+00 1.5464300000000000e+01
0.0000000000000000e+00 5.4674500000000004e+00
0.0000000000000000e+00 1.0538800000000001e+02
ITEM: ATOMS id type xs ys zs
2 1 0.247951 3.41874e-17 0.729002
3 1 0.374457 0.5 0.747531
5 2 0.237825 0.251878 0.747604
6 2 0.374834 0.748102 0.727498
7 2 0.237825 0.748122 0.747604
9 2 0.374834 0.251898 0.727498
1 1 0.499989 1.38657e-18 0.728994
4 2 0.500139 0.750196 0.747472
8 2 0.500139 0.249804 0.747472
32 1 0.75029 2.93824e-17 0.72895
33 1 0.624959 0.5 0.747529
34 1 0.877073 0.5 0.747591
35 2 0.750201 0.249969 0.747589
36 2 0.881655 0.74999 0.728328
37 2 0.624932 0.25204 0.727408
38 2 0.750201 0.750031 0.747589
39 2 0.624932 0.74796 0.727408
40 2 0.881655 0.25001 0.728328
10 1 0.248027 -9.18278e-18 0.765966
12 1 0.374395 0.5 0.7843
13 2 0.237201 0.747964 0.7843
15 2 0.373977 0.249801 0.765981
17 2 0.237201 0.252036 0.7843
18 2 0.373977 0.750199 0.765981
20 1 0.248027 2.61977e-16 0.802636
21 1 0.374458 0.5 0.821077
23 2 0.237838 0.251869 0.821003
24 2 0.373979 0.75019 0.802622
25 2 0.237838 0.748131 0.821003
27 2 0.373979 0.24981 0.802622
11 1 0.500005 -2.68992e-16 0.765959
14 2 0.500155 0.249968 0.784301
16 2 0.500155 0.750032 0.784301
19 1 0.500004 1.38615e-17 0.802643
22 2 0.500139 0.750204 0.821135
26 2 0.500139 0.249796 0.821135
41 1 0.750622 -4.33019e-17 0.765963
42 1 0.876988 0.5 0.7843
43 1 0.624973 0.5 0.7843
44 2 0.750993 0.749844 0.7843
45 2 0.624877 0.750033 0.765982
46 2 0.88786 0.247954 0.765974
47 2 0.750993 0.250156 0.7843
48 2 0.88786 0.752046 0.765974
49 2 0.624877 0.249967 0.765982
50 1 0.750621 -3.40601e-17 0.802639
51 1 0.624958 0.5 0.821079
52 1 0.877074 0.5 0.821017
53 2 0.7502 0.24996 0.821017
54 2 0.887847 0.752037 0.802629
55 2 0.624877 0.249976 0.802622
56 2 0.7502 0.75004 0.821017
57 2 0.624877 0.750024 0.802622
58 2 0.887847 0.247963 0.802629
28 1 0.247951 1.37433e-16 0.839608
30 2 0.374836 0.251899 0.841111
31 2 0.374836 0.748101 0.841111
29 1 0.499988 -7.08059e-17 0.839616
59 1 0.75029 -4.04744e-18 0.839659
60 2 0.624932 0.747959 0.841202
61 2 0.881652 0.250012 0.840282
62 2 0.881652 0.749988 0.840282
63 2 0.624932 0.252041 0.841202
ITEM: TIMESTEP
3
ITEM: NUMBER OF ATOMS
63
ITEM: BOX BOUNDS pp pp pp
0.0000000000000000e+00 1.5464300000000000e+01
0.0000000000000000e+00 5.4674500000000004e+00
0.0000000000000000e+00 1.0538800000000001e+02
ITEM: ATOMS id type xs ys zs
2 1 0.246775 -1.49435e-17 0.728844
3 1 0.373268 0.5 0.747351
5 2 0.232688 0.251949 0.747473
6 2 0.373885 0.748043 0.726751
7 2 0.232688 0.748051 0.747473
9 2 0.373885 0.251957 0.726751
1 1 0.499945 -5.74368e-17 0.7288
4 2 0.499938 0.750297 0.74715
8 2 0.499938 0.249703 0.74715
32 1 0.750972 -3.73957e-19 0.728754
33 1 0.624999 0.5 0.747334
34 1 0.87835 0.5 0.7475
35 2 0.751312 0.249962 0.747427
36 2 0.884826 0.749991 0.72788
37 2 0.625125 0.252288 0.726492
38 2 0.751312 0.750038 0.747427
39 2 0.625125 0.747712 0.726492
40 2 0.884826 0.250009 0.72788
10 1 0.246658 -4.29394e-17 0.765967
12 1 0.373102 0.5 0.784301
13 2 0.230735 0.747619 0.784301
15 2 0.371785 0.249714 0.765957
17 2 0.230735 0.252381 0.784301
18 2 0.371785 0.750286 0.765957
20 1 0.246658 1.83936e-16 0.802636
21 1 0.37327 0.5 0.821257
23 2 0.232704 0.251943 0.821134
24 2 0.371787 0.750279 0.802647
25 2 0.232704 0.748057 0.821134
27 2 0.371787 0.249721 0.802647
11 1 0.499794 -3.11439e-16 0.765929
14 2 0.49964 0.25013 0.784301
16 2 0.49964 0.74987 0.784301
19 1 0.499794 -3.04231e-17 0.802673
22 2 0.499939 0.750304 0.821456
26 2 0.499939 0.249696 0.821456
41 1 0.751949 -2.14863e-16 0.765958
42 1 0.878341 0.5 0.7843
43 1 0.62518 0.5 0.784301
44 2 0.753522 0.749584 0.784301
45 2 0.625084 0.750016 0.765955
46 2 0.894147 0.247706 0.765951
47 2 0.753522 0.250416 0.784301
48 2 0.894147 0.752294 0.765951
49 2 0.625084 0.249984 0.765955
50 1 0.751947 -6.70021e-17 0.802645
51 1 0.624999 0.5 0.821274
52 1 0.878351 0.5 0.821107
53 2 0.75131 0.249956 0.821179
54 2 0.894132 0.752288 0.802652
55 2 0.625084 0.24999 0.802649
56 2 0.75131 0.750044 0.821179
57 2 0.625084 0.75001 0.802649
58 2 0.894132 0.247712 0.802652
28 1 0.246775 6.95852e-17 0.839766
30 2 0.373889 0.251958 0.841858
31 2 0.373889 0.748042 0.841858
29 1 0.499945 -1.12751e-16 0.83981
59 1 0.750972 9.82042e-17 0.839855
60 2 0.625124 0.747711 0.842117
61 2 0.884822 0.250011 0.84073
62 2 0.884822 0.749989 0.84073
63 2 0.625124 0.252289 0.842117
ITEM: TIMESTEP
4
ITEM: NUMBER OF ATOMS
63
ITEM: BOX BOUNDS pp pp pp
0.0000000000000000e+00 1.5464300000000000e+01
0.0000000000000000e+00 5.4674500000000004e+00
0.0000000000000000e+00 1.0538800000000001e+02
ITEM: ATOMS id type xs ys zs
2 1 0.24542 1.3288e-16 0.728661
3 1 0.371639 0.5 0.747107
5 2 0.227901 0.251922 0.747288
6 2 0.372552 0.748081 0.726059
7 2 0.227901 0.748078 0.747288
9 2 0.372552 0.251919 0.726059
1 1 0.499811 5.08164e-17 0.728531
4 2 0.499498 0.750192 0.746802
8 2 0.499498 0.249808 0.746802
32 1 0.751975 4.00288e-17 0.728521
33 1 0.625198 0.5 0.747058
34 1 0.879907 0.5 0.747364
35 2 0.752771 0.249954 0.747215
36 2 0.887972 0.749993 0.72744
37 2 0.625564 0.252244 0.725619
38 2 0.752771 0.750046 0.747215
39 2 0.625564 0.747756 0.725619
40 2 0.887972 0.250007 0.72744
10 1 0.244769 2.98623e-18 0.76595
12 1 0.371196 0.5 0.784301
13 2 0.224268 0.74754 0.784301
15 2 0.369283 0.249787 0.765879
17 2 0.224268 0.25246 0.784301
18 2 0.369283 0.750213 0.765879
20 1 0.244768 -7.48061e-17 0.802653
21 1 0.371642 0.5 0.8215
23 2 0.227919 0.251917 0.821319
24 2 0.369285 0.750208 0.802725
25 2 0.227919 0.748083 0.821319
27 2 0.369285 0.249792 0.802725
11 1 0.499248 -3.89348e-16 0.765843
14 2 0.498665 0.25029 0.784302
16 2 0.498665 0.74971 0.784302
19 1 0.499249 -8.99522e-19 0.80276
22 2 0.499498 0.750197 0.821804
26 2 0.499498 0.249803 0.821804
41 1 0.753808 -1.154e-16 0.765925
42 1 0.880277 0.5 0.784301
43 1 0.625733 0.5 0.784301
44 2 0.756504 0.749534 0.784301
45 2 0.625544 0.750093 0.765897
46 2 0.900257 0.247722 0.76588
47 2 0.756504 0.250466 0.784301
48 2 0.900257 0.752278 0.76588
49 2 0.625544 0.249907 0.765897
50 1 0.753805 1.73108e-16 0.802679
51 1 0.625199 0.5 0.821548
52 1 0.879907 0.5 0.821243
53 2 0.752768 0.249949 0.821391
54 2 0.900241 0.752273 0.802724
55 2 0.625545 0.249912 0.802708
56 2 0.752768 0.750051 0.821391
57 2 0.625545 0.750088 0.802708
58 2 0.900241 0.247727 0.802724
28 1 0.24542 8.88576e-17 0.839948
30 2 0.372557 0.251919 0.842549
31 2 0.372557 0.748081 0.842549
29 1 0.499812 -7.56415e-17 0.840078
59 1 0.751974 2.5829e-16 0.840088
60 2 0.625563 0.747755 0.842989
61 2 0.887965 0.250008 0.841169
62 2 0.887965 0.749992 0.841169
63 2 0.625563 0.252245 0.842989
ITEM: TIMESTEP
5
ITEM: NUMBER OF ATOMS
63
ITEM: BOX BOUNDS pp pp pp
0.0000000000000000e+00 1.5464300000000000e+01
0.0000000000000000e+00 5.4674500000000004e+00
0.0000000000000000e+00 1.0538800000000001e+02
ITEM: ATOMS id type xs ys zs
2 1 0.243809 -1.62716e-16 0.728443
3 1 0.369611 0.5 0.746802
5 2 0.223228 0.251792 0.747061
6 2 0.370933 0.748236 0.725399
7 2 0.223228 0.748208 0.747061
9 2 0.370933 0.251764 0.725399
1 1 0.499575 -8.51829e-17 0.728166
4 2 0.498945 0.750062 0.746442
8 2 0.498945 0.249938 0.746442
32 1 0.753303 1.00972e-16 0.728234
33 1 0.625578 0.5 0.746715
34 1 0.881854 0.5 0.747181
35 2 0.754486 0.249971 0.746967
36 2 0.891202 0.749996 0.726995
37 2 0.626182 0.25205 0.724787
38 2 0.754486 0.750029 0.746967
39 2 0.626182 0.74795 0.724787
40 2 0.891202 0.250004 0.726995
10 1 0.242198 -5.58791e-17 0.765909
12 1 0.368675 0.5 0.784301
13 2 0.217802 0.747639 0.784301
15 2 0.366525 0.249866 0.76576
17 2 0.217802 0.252361 0.784301
18 2 0.366525 0.750134 0.76576
20 1 0.242197 8.22529e-17 0.802695
21 1 0.369614 0.5 0.821804
23 2 0.223247 0.251788 0.821546
24 2 0.366527 0.750131 0.802844
25 2 0.223247 0.748212 0.821546
27 2 0.366527 0.249869 0.802844
11 1 0.498405 -4.18604e-18 0.765702
14 2 0.497485 0.250453 0.784302
16 2 0.497485 0.749547 0.784302
19 1 0.498406 -7.4965e-18 0.802902
22 2 0.498945 0.750066 0.822164
26 2 0.498945 0.249934 0.822164
41 1 0.756139 -1.75027e-16 0.765851
42 1 0.883032 0.5 0.784301
43 1 0.626563 0.5 0.784302
44 2 0.759712 0.749511 0.784301
45 2 0.626143 0.750187 0.76582
46 2 0.906304 0.247884 0.765764
47 2 0.759712 0.250489 0.784301
48 2 0.906304 0.752116 0.765764
49 2 0.626143 0.249813 0.76582
50 1 0.756136 1.56489e-16 0.802752
51 1 0.625577 0.5 0.821891
52 1 0.881854 0.5 0.821426
53 2 0.754482 0.249967 0.82164
54 2 0.906288 0.752113 0.80284
55 2 0.626144 0.249817 0.802785
56 2 0.754482 0.750033 0.82164
57 2 0.626144 0.750183 0.802785
58 2 0.906288 0.247887 0.80284
28 1 0.24381 2.08579e-17 0.840166
30 2 0.37094 0.251764 0.84321
31 2 0.37094 0.748236 0.84321
29 1 0.499576 -6.98057e-17 0.840441
59 1 0.753301 1.15076e-16 0.840374
60 2 0.62618 0.747949 0.843821
61 2 0.891194 0.250005 0.841614
62 2 0.891194 0.749995 0.841614
63 2 0.62618 0.252051 0.843821
ITEM: TIMESTEP
6
ITEM: NUMBER OF ATOMS
63
ITEM: BOX BOUNDS pp pp pp
0.0000000000000000e+00 1.5464300000000000e+01
0.0000000000000000e+00 5.4674500000000004e+00
0.0000000000000000e+00 1.0538800000000001e+02
ITEM: ATOMS id type xs ys zs
2 1 0.241868 -1.91552e-16 0.728179
3 1 0.367228 0.5 0.746438
5 2 0.218521 0.251712 0.746793
6 2 0.369088 0.748346 0.724761
7 2 0.218521 0.748288 0.746793
9 2 0.369088 0.251654 0.724761
1 1 0.499235 -1.77713e-16 0.727695
4 2 0.498311 0.749899 0.74607
8 2 0.498311 0.250101 0.74607
32 1 0.754965 2.63254e-17 0.72788
33 1 0.626139 0.5 0.746315
34 1 0.88429 0.5 0.746947
35 2 0.75641 0.249989 0.746691
36 2 0.894591 0.750004 0.726537
37 2 0.626943 0.251814 0.723998
38 2 0.75641 0.750011 0.746691
39 2 0.626943 0.748186 0.723998
40 2 0.894591 0.249996 0.726537
10 1 0.238804 -1.47142e-16 0.76584
12 1 0.365582 0.5 0.784302
13 2 0.211335 0.747792 0.784302
15 2 0.363557 0.24997 0.765611
17 2 0.211335 0.252208 0.784302
18 2 0.363557 0.75003 0.765611
20 1 0.238804 2.28654e-16 0.802764
21 1 0.367233 0.5 0.822168
23 2 0.218541 0.251709 0.821813
24 2 0.363559 0.750027 0.802993
25 2 0.218541 0.748291 0.821813
27 2 0.363559 0.249973 0.802993
11 1 0.497316 2.30661e-17 0.765513
14 2 0.49613 0.250563 0.784302
16 2 0.49613 0.749437 0.784302
19 1 0.497319 -1.03196e-16 0.803091
22 2 0.498311 0.749903 0.822535
26 2 0.498311 0.250097 0.822535
41 1 0.75888 -3.45353e-16 0.765735
42 1 0.886782 0.5 0.784301
43 1 0.627595 0.5 0.784302
44 2 0.763127 0.749551 0.784301
45 2 0.626848 0.750334 0.765725
46 2 0.912331 0.24808 0.765608
47 2 0.763127 0.250449 0.784301
48 2 0.912331 0.75192 0.765608
49 2 0.626848 0.249666 0.765725
50 1 0.758877 -3.57815e-16 0.802869
51 1 0.626138 0.5 0.822291
52 1 0.884289 0.5 0.821659
53 2 0.756406 0.249986 0.821916
54 2 0.912316 0.751917 0.802996
55 2 0.62685 0.249669 0.802879
56 2 0.756406 0.750014 0.821916
57 2 0.62685 0.750331 0.802879
58 2 0.912316 0.248083 0.802996
28 1 0.241869 1.5154e-17 0.84043
30 2 0.369096 0.251655 0.843847
31 2 0.369096 0.748345 0.843847
29 1 0.499238 -1.17972e-16 0.840913
59 1 0.754963 4.62719e-17 0.840727
60 2 0.626941 0.748186 0.844609
61 2 0.894581 0.249997 0.842071
62 2 0.894581 0.750003 0.842071
63 2 0.626941 0.251814 0.844609
ITEM: TIMESTEP
7
ITEM: NUMBER OF ATOMS
63
ITEM: BOX BOUNDS pp pp pp
0.0000000000000000e+00 1.5464300000000000e+01
0.0000000000000000e+00 5.4674500000000004e+00
0.0000000000000000e+00 1.0538800000000001e+02
ITEM: ATOMS id type xs ys zs
2 1 0.239539 -2.69465e-16 0.727859
3 1 0.364536 0.5 0.746018
5 2 0.213684 0.251484 0.746487
6 2 0.367031 0.748624 0.724146
7 2 0.213684 0.748516 0.746487
9 2 0.367031 0.251376 0.724146
1 1 0.498784 -6.10436e-17 0.727115
4 2 0.497596 0.749891 0.745682
8 2 0.497596 0.250109 0.745682
32 1 0.756982 2.79736e-17 0.72745
33 1 0.626868 0.5 0.74587
34 1 0.887281 0.5 0.74666
35 2 0.758564 0.25005 0.746388
36 2 0.898187 0.750015 0.726064
37 2 0.627842 0.251537 0.723259
38 2 0.758564 0.74995 0.746388
39 2 0.627842 0.748463 0.723259
40 2 0.898187 0.249985 0.726064
10 1 0.234531 -1.07187e-16 0.765739
12 1 0.361976 0.5 0.784302
13 2 0.204869 0.748024 0.784302
15 2 0.36035 0.249905 0.765432
17 2 0.204869 0.251976 0.784302
18 2 0.36035 0.750095 0.765432
20 1 0.234531 1.56915e-17 0.802865
21 1 0.36454 0.5 0.822588
23 2 0.213704 0.251482 0.82212
24 2 0.360353 0.750096 0.803173
25 2 0.213704 0.748518 0.82212
27 2 0.360353 0.249904 0.803173
11 1 0.496044 -7.33289e-16 0.76529
14 2 0.494658 0.250696 0.784302
16 2 0.494658 0.749304 0.784302
19 1 0.496046 -5.31118e-16 0.803314
22 2 0.497597 0.749891 0.822923
26 2 0.497597 0.250109 0.822923
41 1 0.761973 7.69758e-17 0.765579
42 1 0.891593 0.5 0.784302
43 1 0.628756 0.5 0.784302
44 2 0.766786 0.749392 0.784302
45 2 0.627622 0.750406 0.76562
46 2 0.918366 0.248339 0.765414
47 2 0.766786 0.250608 0.784302
48 2 0.918366 0.751661 0.765414
49 2 0.627622 0.249594 0.76562
50 1 0.761971 -5.90655e-16 0.803026
51 1 0.626866 0.5 0.822736
52 1 0.88728 0.5 0.821946
53 2 0.758559 0.250049 0.822219
54 2 0.918351 0.751663 0.80319
55 2 0.627625 0.249594 0.802985
56 2 0.758559 0.749951 0.822219
57 2 0.627625 0.750406 0.802985
58 2 0.918351 0.248337 0.80319
28 1 0.239542 -1.62724e-18 0.840749
30 2 0.367039 0.251376 0.844462
31 2 0.367039 0.748624 0.844462
29 1 0.498786 -1.12913e-17 0.841492
59 1 0.756978 -7.1996e-17 0.841158
60 2 0.62784 0.748462 0.845348
61 2 0.898176 0.249987 0.842544
62 2 0.898176 0.750013 0.842544
63 2 0.62784 0.251538 0.845348
ITEM: TIMESTEP
8
ITEM: NUMBER OF ATOMS
63
ITEM: BOX BOUNDS pp pp pp
0.0000000000000000e+00 1.5464300000000000e+01
0.0000000000000000e+00 5.4674500000000004e+00
0.0000000000000000e+00 1.0538800000000001e+02
ITEM: ATOMS id type xs ys zs
2 1 0.23675 -3.23299e-16 0.727473
3 1 0.361585 0.5 0.745551
5 2 0.208635 0.251683 0.746141
6 2 0.364741 0.748441 0.723558
7 2 0.208635 0.748317 0.746141
9 2 0.364741 0.251559 0.723558
1 1 0.498222 1.19756e-16 0.726438
4 2 0.496815 0.749578 0.745281
8 2 0.496815 0.250422 0.745281
32 1 0.759387 3.80114e-16 0.726941
33 1 0.627718 0.5 0.74539
34 1 0.890862 0.5 0.746315
35 2 0.760945 0.250007 0.746062
36 2 0.902042 0.750038 0.725576
37 2 0.628886 0.251349 0.722579
38 2 0.760945 0.749993 0.746062
39 2 0.628886 0.748651 0.722579
40 2 0.902042 0.249962 0.725576
10 1 0.229396 -5.5106e-16 0.765602
12 1 0.357936 0.5 0.784302
13 2 0.198402 0.748126 0.784302
15 2 0.356909 0.250149 0.765227
17 2 0.198402 0.251874 0.784302
18 2 0.356909 0.749851 0.765227
20 1 0.229397 -3.51495e-16 0.803003
21 1 0.361589 0.5 0.823054
23 2 0.208656 0.251681 0.822466
24 2 0.356912 0.749845 0.803378
25 2 0.208656 0.748319 0.822466
27 2 0.356912 0.250155 0.803378
11 1 0.494652 -2.29996e-16 0.765048
14 2 0.492978 0.250665 0.784302
16 2 0.492978 0.749335 0.784302
19 1 0.494654 -3.12736e-16 0.803556
22 2 0.496815 0.749587 0.823325
26 2 0.496815 0.250413 0.823325
41 1 0.765339 -8.96854e-16 0.765394
42 1 0.89743 0.5 0.784302
43 1 0.630003 0.5 0.784302
44 2 0.770715 0.749686 0.784302
45 2 0.628501 0.750705 0.765499
46 2 0.92443 0.248451 0.765184
47 2 0.770715 0.250314 0.784302
48 2 0.92443 0.751549 0.765184
49 2 0.628501 0.249295 0.765499
50 1 0.765337 -8.84582e-16 0.80321
51 1 0.627717 0.5 0.823215
52 1 0.89086 0.5 0.822291
53 2 0.760941 0.250003 0.822544
54 2 0.924416 0.751537 0.803421
55 2 0.628503 0.249303 0.803106
56 2 0.760941 0.749997 0.822544
57 2 0.628503 0.750697 0.803106
58 2 0.924416 0.248463 0.803421
28 1 0.236754 9.99457e-17 0.841135
30 2 0.36475 0.251563 0.84505
31 2 0.36475 0.748437 0.84505
29 1 0.498224 -2.27642e-16 0.842168
59 1 0.759383 2.63893e-16 0.841666
60 2 0.628883 0.748652 0.846027
61 2 0.90203 0.24996 0.843032
62 2 0.90203 0.75004 0.843032
63 2 0.628883 0.251348 0.846027
ITEM: TIMESTEP
9
ITEM: NUMBER OF ATOMS
63
ITEM: BOX BOUNDS pp pp pp
0.0000000000000000e+00 1.5464300000000000e+01
0.0000000000000000e+00 5.4674500000000004e+00
0.0000000000000000e+00 1.0538800000000001e+02
ITEM: ATOMS id type xs ys zs
2 1 0.233548 -6.3572e-16 0.72703
3 1 0.358469 0.5 0.74506
5 2 0.203434 0.250059 0.745764
6 2 0.362234 0.750235 0.72302
7 2 0.203434 0.749941 0.745764
9 2 0.362234 0.249765 0.72302
1 1 0.497509 1.00293e-15 0.725716
4 2 0.495969 0.750832 0.744879
8 2 0.495969 0.249168 0.744879
32 1 0.76215 4.29586e-16 0.726375
33 1 0.628709 0.5 0.744904
34 1 0.89491 0.5 0.745925
35 2 0.763563 0.250462 0.745721
36 2 0.906106 0.750034 0.725089
37 2 0.630063 0.25082 0.721986
38 2 0.763563 0.749538 0.745721
39 2 0.630063 0.74918 0.721986
40 2 0.906106 0.249966 0.725089
10 1 0.223703 -3.28357e-16 0.765423
12 1 0.353634 0.5 0.784302
13 2 0.192072 0.748835 0.784302
15 2 0.353226 0.248776 0.764996
17 2 0.192072 0.251165 0.784302
18 2 0.353226 0.751224 0.764996
20 1 0.223705 1.21591e-16 0.803183
21 1 0.358474 0.5 0.823546
23 2 0.203453 0.250064 0.822843
24 2 0.353229 0.75125 0.803608
25 2 0.203453 0.749936 0.822843
27 2 0.353229 0.24875 0.803608
11 1 0.493177 3.40671e-17 0.764798
14 2 0.491283 0.251166 0.784302
16 2 0.491283 0.748834 0.784302
19 1 0.493179 -1.18319e-15 0.803807
22 2 0.49597 0.750799 0.823726
26 2 0.49597 0.249201 0.823726
41 1 0.768858 1.51124e-16 0.765189
42 1 0.903896 0.5 0.784302
43 1 0.631268 0.5 0.784302
44 2 0.774869 0.747764 0.784302
45 2 0.629406 0.749945 0.765383
46 2 0.930419 0.24918 0.764923
47 2 0.774869 0.252236 0.784302
48 2 0.930419 0.75082 0.764923
49 2 0.629406 0.250055 0.765383
50 1 0.768856 -1.19437e-16 0.803416
51 1 0.628706 0.5 0.823701
52 1 0.894906 0.5 0.822681
53 2 0.763558 0.250472 0.822885
54 2 0.930406 0.750869 0.803682
55 2 0.629408 0.250025 0.803222
56 2 0.763558 0.749528 0.822885
57 2 0.629408 0.749975 0.803222
58 2 0.930406 0.249131 0.803682
28 1 0.233554 -1.0176e-16 0.841577
30 2 0.362243 0.249749 0.845587
31 2 0.362243 0.750251 0.845587
29 1 0.497511 4.85106e-17 0.842889
59 1 0.762145 4.81108e-16 0.842232
60 2 0.630061 0.749171 0.846621
61 2 0.906094 0.249982 0.843518
62 2 0.906094 0.750018 0.843518
63 2 0.630061 0.250829 0.846621
ITEM: TIMESTEP
10
ITEM: NUMBER OF ATOMS
63
ITEM: BOX BOUNDS pp pp pp
0.0000000000000000e+00 1.5464300000000000e+01
0.0000000000000000e+00 5.4674500000000004e+00
0.0000000000000000e+00 1.0538800000000001e+02
ITEM: ATOMS id type xs ys zs
2 1 0.230103 -9.83797e-16 0.726565
3 1 0.3557 0.5 0.744628
5 2 0.198582 0.257749 0.745406
6 2 0.359836 0.741956 0.722595
7 2 0.198582 0.742251 0.745406
9 2 0.359836 0.258044 0.722595
1 1 0.496906 1.2463e-15 0.72504
4 2 0.495248 0.744005 0.744547
8 2 0.495248 0.255995 0.744547
32 1 0.764962 1.7683e-15 0.725853
33 1 0.62943 0.5 0.744474
34 1 0.898897 0.5 0.745537
35 2 0.765994 0.248207 0.745426
36 2 0.909943 0.750218 0.724663
37 2 0.631202 0.2521 0.721544
38 2 0.765994 0.751793 0.745426
39 2 0.631202 0.7479 0.721544
40 2 0.909943 0.249782 0.724663
10 1 0.218069 -7.40813e-16 0.765248
12 1 0.349658 0.5 0.784303
13 2 0.18654 0.746462 0.784303
15 2 0.349977 0.255755 0.764794
17 2 0.18654 0.253538 0.784303
18 2 0.349977 0.744245 0.764794
20 1 0.218066 -2.28962e-16 0.803358
21 1 0.355702 0.5 0.823977
23 2 0.198602 0.25772 0.823201
24 2 0.349982 0.744105 0.803811
25 2 0.198602 0.74228 0.823201
27 2 0.349982 0.255895 0.803811
11 1 0.492009 -8.01458e-16 0.764614
14 2 0.489403 0.248961 0.784303
16 2 0.489403 0.751039 0.784303
19 1 0.49201 3.08165e-16 0.803991
22 2 0.495247 0.744184 0.824058
26 2 0.495247 0.255816 0.824058
41 1 0.771966 -7.45421e-16 0.765038
42 1 0.910363 0.5 0.784303
43 1 0.632366 0.5 0.784303
44 2 0.778534 0.757561 0.784302
45 2 0.630382 0.75452 0.765255
46 2 0.935728 0.246632 0.764671
47 2 0.778534 0.242439 0.784302
48 2 0.935728 0.753368 0.764671
49 2 0.630382 0.24548 0.765255
50 1 0.771966 -1.37396e-15 0.803568
51 1 0.629431 0.5 0.824131
52 1 0.898896 0.5 0.823068
53 2 0.76599 0.24815 0.82318
54 2 0.935714 0.753103 0.803935
55 2 0.630383 0.245637 0.80335
56 2 0.76599 0.75185 0.82318
57 2 0.630383 0.754363 0.80335
58 2 0.935714 0.246897 0.803935
28 1 0.230108 -3.29566e-16 0.842042
30 2 0.359847 0.258133 0.846012
31 2 0.359847 0.741867 0.846012
29 1 0.496912 -6.89384e-16 0.843565
59 1 0.764956 5.21169e-16 0.842753
60 2 0.631199 0.747944 0.847062
61 2 0.909931 0.249705 0.843944
62 2 0.909931 0.750295 0.843944
63 2 0.631199 0.252056 0.847062
ITEM: TIMESTEP
11
ITEM: NUMBER OF ATOMS
63
ITEM: BOX BOUNDS pp pp pp
0.0000000000000000e+00 1.5464300000000000e+01
0.0000000000000000e+00 5.4674500000000004e+00
0.0000000000000000e+00 1.0538800000000001e+02
ITEM: ATOMS id type xs ys zs
2 1 0.227139 1 0.726178
3 1 0.352745 0.5 0.744188
5 2 0.193951 0.276005 0.745047
6 2 0.357307 0.723962 0.72223
7 2 0.193951 0.723995 0.745047
9 2 0.357307 0.276038 0.72223
1 1 0.495837 1.58638e-15 0.724497
4 2 0.494352 0.734042 0.744224
8 2 0.494352 0.265958 0.744224
32 1 0.76769 2.63731e-15 0.725322
33 1 0.631045 0.5 0.744109
34 1 0.902672 0.5 0.745185
35 2 0.768558 0.257108 0.745142
36 2 0.913736 0.749616 0.72427
37 2 0.632369 0.246514 0.721171
38 2 0.768558 0.742892 0.745142
39 2 0.632369 0.753486 0.721171
40 2 0.913736 0.250384 0.72427
10 1 0.213228 1 0.765013
12 1 0.345923 0.5 0.7843
13 2 0.181338 0.755992 0.784303
15 2 0.346355 0.263465 0.764559
17 2 0.181338 0.244008 0.784303
18 2 0.346355 0.736535 0.764559
20 1 0.21324 2.04609e-16 0.803593
21 1 0.35276 0.5 0.824419
23 2 0.19397 0.275884 0.82356
24 2 0.346352 0.736204 0.804046
25 2 0.19397 0.724116 0.82356
27 2 0.346352 0.263796 0.804046
11 1 0.490303 1 0.76434
14 2 0.488057 0.256679 0.784302
16 2 0.488057 0.743321 0.784302
19 1 0.490311 1 0.804264
22 2 0.494354 0.734484 0.824381
26 2 0.494354 0.265516 0.824381
41 1 0.775135 1 0.764752
42 1 0.915608 0.5 0.7843
43 1 0.633492 0.5 0.7843
44 2 0.782674 0.765619 0.784302
45 2 0.631179 0.765674 0.765192
46 2 0.940754 0.256843 0.764422
47 2 0.782674 0.234381 0.784302
48 2 0.940754 0.743157 0.764422
49 2 0.631179 0.234326 0.765192
50 1 0.775128 1 0.803853
51 1 0.63103 0.5 0.824497
52 1 0.902659 0.5 0.823424
53 2 0.768553 0.257287 0.823464
54 2 0.940745 0.744026 0.804183
55 2 0.631181 0.234578 0.803414
56 2 0.768553 0.742713 0.823464
57 2 0.631181 0.765422 0.803414
58 2 0.940745 0.255974 0.804183
28 1 0.227154 1 0.84243
30 2 0.357316 0.276423 0.846377
31 2 0.357316 0.723577 0.846377
29 1 0.495835 1 0.844109
59 1 0.767682 1 0.843285
60 2 0.632366 0.753333 0.847435
61 2 0.913725 0.250634 0.844337
62 2 0.913725 0.749366 0.844337
63 2 0.632366 0.246667 0.847435
ITEM: TIMESTEP
12
ITEM: NUMBER OF ATOMS
63
ITEM: BOX BOUNDS pp pp pp
0.0000000000000000e+00 1.5464300000000000e+01
0.0000000000000000e+00 5.4674500000000004e+00
0.0000000000000000e+00 1.0538800000000001e+02
ITEM: ATOMS id type xs ys zs
2 1 0.224571 1 0.725843
3 1 0.350178 0.5 0.743805
5 2 0.18993 0.294165 0.744734
6 2 0.355108 0.706035 0.721914
7 2 0.18993 0.705835 0.744734
9 2 0.355108 0.293965 0.721914
1 1 0.4949 1.88382e-15 0.724028
4 2 0.493574 0.724894 0.743944
8 2 0.493574 0.275106 0.743944
32 1 0.770063 3.38549e-15 0.724862
33 1 0.632448 0.5 0.743793
34 1 0.905955 0.5 0.744878
35 2 0.770783 0.264876 0.744895
36 2 0.91703 0.749115 0.723929
37 2 0.633382 0.24183 0.720848
38 2 0.770783 0.735124 0.744895
39 2 0.633382 0.75817 0.720848
40 2 0.91703 0.250885 0.723929
10 1 0.209029 1 0.764807
12 1 0.342679 0.5 0.784298
13 2 0.176821 0.764243 0.784303
15 2 0.34321 0.270427 0.764355
17 2 0.176821 0.235757 0.784303
18 2 0.34321 0.729573 0.764355
20 1 0.209054 5.74638e-16 0.803798
21 1 0.350203 0.5 0.824802
23 2 0.189948 0.293931 0.823873
24 2 0.343201 0.729054 0.804251
25 2 0.189948 0.706069 0.823873
27 2 0.343201 0.270946 0.804251
11 1 0.488816 1 0.764102
14 2 0.486886 0.263445 0.784302
16 2 0.486886 0.736555 0.784302
19 1 0.488828 1 0.804501
22 2 0.49358 0.725606 0.82466
26 2 0.49358 0.274394 0.82466
41 1 0.77789 1 0.764502
42 1 0.920157 0.5 0.784298
43 1 0.634472 0.5 0.784298
44 2 0.786269 0.773041 0.784302
45 2 0.631872 0.775859 0.765138
46 2 0.945119 0.265704 0.764207
47 2 0.786269 0.226959 0.784302
48 2 0.945119 0.734296 0.764207
49 2 0.631872 0.224141 0.765138
50 1 0.777877 1 0.804102
51 1 0.63242 0.5 0.824814
52 1 0.905932 0.5 0.823733
53 2 0.770777 0.265261 0.823711
54 2 0.945114 0.736154 0.804399
55 2 0.631876 0.224498 0.80347
56 2 0.770777 0.734739 0.823711
57 2 0.631876 0.775502 0.80347
58 2 0.945114 0.263846 0.804399
28 1 0.224594 1 0.842765
30 2 0.355115 0.294713 0.846693
31 2 0.355115 0.705287 0.846693
29 1 0.494892 1 0.844581
59 1 0.770052 1 0.843745
60 2 0.633379 0.757852 0.847758
61 2 0.91702 0.25141 0.844677
62 2 0.91702 0.74859 0.844677
63 2 0.633379 0.242148 0.847758
ITEM: TIMESTEP
13
ITEM: NUMBER OF ATOMS
63
ITEM: BOX BOUNDS pp pp pp
0.0000000000000000e+00 1.5464300000000000e+01
0.0000000000000000e+00 5.4674500000000004e+00
0.0000000000000000e+00 1.0538800000000001e+02
ITEM: ATOMS id type xs ys zs
2 1 0.222102 1 0.725521
3 1 0.347708 0.5 0.743437
5 2 0.186062 0.312309 0.744434
6 2 0.352993 0.688123 0.72161
7 2 0.186062 0.687691 0.744434
9 2 0.352993 0.311877 0.72161
1 1 0.493998 2.17009e-15 0.723576
4 2 0.492827 0.715962 0.743675
8 2 0.492827 0.284038 0.743675
32 1 0.772345 4.10456e-15 0.724419
33 1 0.633797 0.5 0.743488
34 1 0.909113 0.5 0.744583
35 2 0.772923 0.272373 0.744657
36 2 0.920198 0.748635 0.723601
37 2 0.634356 0.237321 0.720537
38 2 0.772923 0.727627 0.744657
39 2 0.634356 0.762679 0.720537
40 2 0.920198 0.251365 0.723601
10 1 0.204991 1 0.764609
12 1 0.339558 0.5 0.784296
13 2 0.172476 0.772199 0.784303
15 2 0.340186 0.277192 0.764159
17 2 0.172476 0.227801 0.784303
18 2 0.340186 0.722808 0.764159
20 1 0.205028 9.30045e-16 0.803996
21 1 0.347744 0.5 0.82517
23 2 0.18608 0.311959 0.824173
24 2 0.340171 0.722102 0.804448
25 2 0.18608 0.688041 0.824173
27 2 0.340171 0.277898 0.804448
11 1 0.487384 1 0.763873
14 2 0.485759 0.269974 0.784301
16 2 0.485759 0.730026 0.784301
19 1 0.487401 1 0.804728
22 2 0.492835 0.716946 0.824929
26 2 0.492835 0.283054 0.824929
41 1 0.780541 1 0.764262
42 1 0.924532 0.5 0.784296
43 1 0.635416 0.5 0.784295
44 2 0.789727 0.78028 0.784302
45 2 0.632539 0.785804 0.765085
46 2 0.949317 0.274256 0.763999
47 2 0.789727 0.21972 0.784302
48 2 0.949317 0.725744 0.763999
49 2 0.632539 0.214196 0.765085
50 1 0.780522 1 0.804341
51 1 0.633756 0.5 0.825119
52 1 0.909081 0.5 0.824031
53 2 0.772917 0.272959 0.823948
54 2 0.949317 0.728563 0.804607
55 2 0.632545 0.214661 0.803524
56 2 0.772917 0.727041 0.823948
57 2 0.632545 0.785339 0.803524
58 2 0.949317 0.271437 0.804607
28 1 0.222134 1 0.843088