 # Ce640 O1280
  
        1920  atoms
           2  atom types
 
      0.000000000000      15.464284870000  xlo xhi
      0.000000000000      21.869801400000  ylo yhi
      0.000000000000     201.035703350000  zlo zhi
 
Masses
 
            1   140.11600000            # Ce
            2   15.99900000             # O
 
Atoms # charge
 
         1    1   4.000000        2.899553413125       5.467450350000       2.899554032273
         2    1   4.000000        2.899553413125      10.934900700000       2.899554032273
         3    1   4.000000        2.899553413125      16.402351050000       2.899554032273
         4    1   4.000000        2.899553413125       0.000000000000       2.899554032273
         5    1   4.000000        6.765624630625       5.467450350000       2.899554032273
         6    1   4.000000        6.765624630625      10.934900700000       2.899554032273
         7    1   4.000000        6.765624630625      16.402351050000       2.899554032273
         8    1   4.000000        6.765624630625       0.000000000000       2.899554032273
         9    1   4.000000       10.631695848125       5.467450350000       2.899554032273
        10    1   4.000000       10.631695848125      10.934900700000       2.899554032273
        11    1   4.000000       10.631695848125      16.402351050000       2.899554032273
        12    1   4.000000       10.631695848125       0.000000000000       2.899554032273
        13    1   4.000000       14.497767065625       5.467450350000       2.899554032273
        14    1   4.000000       14.497767065625      10.934900700000       2.899554032273
        15    1   4.000000       14.497767065625      16.402351050000       2.899554032273
        16    1   4.000000       14.497767065625       0.000000000000       2.899554032273
        17    1   4.000000        0.966517804375       2.733725175000       0.966517340639
        18    1   4.000000        0.966517804375       8.201175525000       0.966517340639
        19    1   4.000000        0.966517804375      13.668625875000       0.966517340639
        20    1   4.000000        0.966517804375      19.136076225000       0.966517340639
        21    1   4.000000        4.832589021875       2.733725175000       0.966517340639
        22    1   4.000000        4.832589021875       8.201175525000       0.966517340639
        23    1   4.000000        4.832589021875      13.668625875000       0.966517340639
        24    1   4.000000        4.832589021875      19.136076225000       0.966517340639
        25    1   4.000000        8.698660239375       2.733725175000       0.966517340639
        26    1   4.000000        8.698660239375       8.201175525000       0.966517340639
        27    1   4.000000        8.698660239375      13.668625875000       0.966517340639
        28    1   4.000000        8.698660239375      19.136076225000       0.966517340639
        29    1   4.000000       12.564731456875       2.733725175000       0.966517340639
        30    1   4.000000       12.564731456875       8.201175525000       0.966517340639
        31    1   4.000000       12.564731456875      13.668625875000       0.966517340639
        32    1   4.000000       12.564731456875      19.136076225000       0.966517340639
        33    1   4.000000        2.899553413125       5.467450350000       6.765625405185
        34    1   4.000000        2.899553413125      10.934900700000       6.765625405185
        35    1   4.000000        2.899553413125      16.402351050000       6.765625405185
        36    1   4.000000        2.899553413125       0.000000000000       6.765625405185
        37    1   4.000000        6.765624630625       5.467450350000       6.765625405185
        38    1   4.000000        6.765624630625      10.934900700000       6.765625405185
        39    1   4.000000        6.765624630625      16.402351050000       6.765625405185
        40    1   4.000000        6.765624630625       0.000000000000       6.765625405185
        41    1   4.000000       10.631695848125       5.467450350000       6.765625405185
        42    1   4.000000       10.631695848125      10.934900700000       6.765625405185
        43    1   4.000000       10.631695848125      16.402351050000       6.765625405185
        44    1   4.000000       10.631695848125       0.000000000000       6.765625405185
        45    1   4.000000       14.497767065625       5.467450350000       6.765625405185
        46    1   4.000000       14.497767065625      10.934900700000       6.765625405185
        47    1   4.000000       14.497767065625      16.402351050000       6.765625405185
        48    1   4.000000       14.497767065625       0.000000000000       6.765625405185
        49    1   4.000000        0.966517804375       2.733725175000       4.832588713551
        50    1   4.000000        0.966517804375       8.201175525000       4.832588713551
        51    1   4.000000        0.966517804375      13.668625875000       4.832588713551
        52    1   4.000000        0.966517804375      19.136076225000       4.832588713551
        53    1   4.000000        4.832589021875       2.733725175000       4.832588713551
        54    1   4.000000        4.832589021875       8.201175525000       4.832588713551
        55    1   4.000000        4.832589021875      13.668625875000       4.832588713551
        56    1   4.000000        4.832589021875      19.136076225000       4.832588713551
        57    1   4.000000        8.698660239375       2.733725175000       4.832588713551
        58    1   4.000000        8.698660239375       8.201175525000       4.832588713551
        59    1   4.000000        8.698660239375      13.668625875000       4.832588713551
        60    1   4.000000        8.698660239375      19.136076225000       4.832588713551
        61    1   4.000000       12.564731456875       2.733725175000       4.832588713551
        62    1   4.000000       12.564731456875       8.201175525000       4.832588713551
        63    1   4.000000       12.564731456875      13.668625875000       4.832588713551
        64    1   4.000000       12.564731456875      19.136076225000       4.832588713551
        65    1   4.000000        2.899553413125       5.467450350000      10.631696778097
        66    1   4.000000        2.899553413125      10.934900700000      10.631696778097
        67    1   4.000000        2.899553413125      16.402351050000      10.631696778097
        68    1   4.000000        2.899553413125       0.000000000000      10.631696778097
        69    1   4.000000        6.765624630625       5.467450350000      10.631696778097
        70    1   4.000000        6.765624630625      10.934900700000      10.631696778097
        71    1   4.000000        6.765624630625      16.402351050000      10.631696778097
        72    1   4.000000        6.765624630625       0.000000000000      10.631696778097
        73    1   4.000000       10.631695848125       5.467450350000      10.631696778097
        74    1   4.000000       10.631695848125      10.934900700000      10.631696778097
        75    1   4.000000       10.631695848125      16.402351050000      10.631696778097
        76    1   4.000000       10.631695848125       0.000000000000      10.631696778097
        77    1   4.000000       14.497767065625       5.467450350000      10.631696778097
        78    1   4.000000       14.497767065625      10.934900700000      10.631696778097
        79    1   4.000000       14.497767065625      16.402351050000      10.631696778097
        80    1   4.000000       14.497767065625       0.000000000000      10.631696778097
        81    1   4.000000        0.966517804375       2.733725175000       8.698660086463
        82    1   4.000000        0.966517804375       8.201175525000       8.698660086463
        83    1   4.000000        0.966517804375      13.668625875000       8.698660086463
        84    1   4.000000        0.966517804375      19.136076225000       8.698660086463
        85    1   4.000000        4.832589021875       2.733725175000       8.698660086463
        86    1   4.000000        4.832589021875       8.201175525000       8.698660086463
        87    1   4.000000        4.832589021875      13.668625875000       8.698660086463
        88    1   4.000000        4.832589021875      19.136076225000       8.698660086463
        89    1   4.000000        8.698660239375       2.733725175000       8.698660086463
        90    1   4.000000        8.698660239375       8.201175525000       8.698660086463
        91    1   4.000000        8.698660239375      13.668625875000       8.698660086463
        92    1   4.000000        8.698660239375      19.136076225000       8.698660086463
        93    1   4.000000       12.564731456875       2.733725175000       8.698660086463
        94    1   4.000000       12.564731456875       8.201175525000       8.698660086463
        95    1   4.000000       12.564731456875      13.668625875000       8.698660086463
        96    1   4.000000       12.564731456875      19.136076225000       8.698660086463
        97    1   4.000000        2.899553413125       5.467450350000      14.497766140653
        98    1   4.000000        2.899553413125      10.934900700000      14.497766140653
        99    1   4.000000        2.899553413125      16.402351050000      14.497766140653
       100    1   4.000000        2.899553413125       0.000000000000      14.497766140653
       101    1   4.000000        6.765624630625       5.467450350000      14.497766140653
       102    1   4.000000        6.765624630625      10.934900700000      14.497766140653
       103    1   4.000000        6.765624630625      16.402351050000      14.497766140653
       104    1   4.000000        6.765624630625       0.000000000000      14.497766140653
       105    1   4.000000       10.631695848125       5.467450350000      14.497766140653
       106    1   4.000000       10.631695848125      10.934900700000      14.497766140653
       107    1   4.000000       10.631695848125      16.402351050000      14.497766140653
       108    1   4.000000       10.631695848125       0.000000000000      14.497766140653
       109    1   4.000000       14.497767065625       5.467450350000      14.497766140653
       110    1   4.000000       14.497767065625      10.934900700000      14.497766140653
       111    1   4.000000       14.497767065625      16.402351050000      14.497766140653
       112    1   4.000000       14.497767065625       0.000000000000      14.497766140653
       113    1   4.000000        0.966517804375       2.733725175000      12.564731459375
       114    1   4.000000        0.966517804375       8.201175525000      12.564731459375
       115    1   4.000000        0.966517804375      13.668625875000      12.564731459375
       116    1   4.000000        0.966517804375      19.136076225000      12.564731459375
       117    1   4.000000        4.832589021875       2.733725175000      12.564731459375
       118    1   4.000000        4.832589021875       8.201175525000      12.564731459375
       119    1   4.000000        4.832589021875      13.668625875000      12.564731459375
       120    1   4.000000        4.832589021875      19.136076225000      12.564731459375
       121    1   4.000000        8.698660239375       2.733725175000      12.564731459375
       122    1   4.000000        8.698660239375       8.201175525000      12.564731459375
       123    1   4.000000        8.698660239375      13.668625875000      12.564731459375
       124    1   4.000000        8.698660239375      19.136076225000      12.564731459375
       125    1   4.000000       12.564731456875       2.733725175000      12.564731459375
       126    1   4.000000       12.564731456875       8.201175525000      12.564731459375
       127    1   4.000000       12.564731456875      13.668625875000      12.564731459375
       128    1   4.000000       12.564731456875      19.136076225000      12.564731459375
       129    1   4.000000        2.899553413125       5.467450350000      18.363837513565
       130    1   4.000000        2.899553413125      10.934900700000      18.363837513565
       131    1   4.000000        2.899553413125      16.402351050000      18.363837513565
       132    1   4.000000        2.899553413125       0.000000000000      18.363837513565
       133    1   4.000000        6.765624630625       5.467450350000      18.363837513565
       134    1   4.000000        6.765624630625      10.934900700000      18.363837513565
       135    1   4.000000        6.765624630625      16.402351050000      18.363837513565
       136    1   4.000000        6.765624630625       0.000000000000      18.363837513565
       137    1   4.000000       10.631695848125       5.467450350000      18.363837513565
       138    1   4.000000       10.631695848125      10.934900700000      18.363837513565
       139    1   4.000000       10.631695848125      16.402351050000      18.363837513565
       140    1   4.000000       10.631695848125       0.000000000000      18.363837513565
       141    1   4.000000       14.497767065625       5.467450350000      18.363837513565
       142    1   4.000000       14.497767065625      10.934900700000      18.363837513565
       143    1   4.000000       14.497767065625      16.402351050000      18.363837513565
       144    1   4.000000       14.497767065625       0.000000000000      18.363837513565
       145    1   4.000000        0.966517804375       2.733725175000      16.430802832287
       146    1   4.000000        0.966517804375       8.201175525000      16.430802832287
       147    1   4.000000        0.966517804375      13.668625875000      16.430802832287
       148    1   4.000000        0.966517804375      19.136076225000      16.430802832287
       149    1   4.000000        4.832589021875       2.733725175000      16.430802832287
       150    1   4.000000        4.832589021875       8.201175525000      16.430802832287
       151    1   4.000000        4.832589021875      13.668625875000      16.430802832287
       152    1   4.000000        4.832589021875      19.136076225000      16.430802832287
       153    1   4.000000        8.698660239375       2.733725175000      16.430802832287
       154    1   4.000000        8.698660239375       8.201175525000      16.430802832287
       155    1   4.000000        8.698660239375      13.668625875000      16.430802832287
       156    1   4.000000        8.698660239375      19.136076225000      16.430802832287
       157    1   4.000000       12.564731456875       2.733725175000      16.430802832287
       158    1   4.000000       12.564731456875       8.201175525000      16.430802832287
       159    1   4.000000       12.564731456875      13.668625875000      16.430802832287
       160    1   4.000000       12.564731456875      19.136076225000      16.430802832287
       161    1   4.000000        2.899553413125       5.467450350000      22.229908886477
       162    1   4.000000        2.899553413125      10.934900700000      22.229908886477
       163    1   4.000000        2.899553413125      16.402351050000      22.229908886477
       164    1   4.000000        2.899553413125       0.000000000000      22.229908886477
       165    1   4.000000        6.765624630625       5.467450350000      22.229908886477
       166    1   4.000000        6.765624630625      10.934900700000      22.229908886477
       167    1   4.000000        6.765624630625      16.402351050000      22.229908886477
       168    1   4.000000        6.765624630625       0.000000000000      22.229908886477
       169    1   4.000000       10.631695848125       5.467450350000      22.229908886477
       170    1   4.000000       10.631695848125      10.934900700000      22.229908886477
       171    1   4.000000       10.631695848125      16.402351050000      22.229908886477
       172    1   4.000000       10.631695848125       0.000000000000      22.229908886477
       173    1   4.000000       14.497767065625       5.467450350000      22.229908886477
       174    1   4.000000       14.497767065625      10.934900700000      22.229908886477
       175    1   4.000000       14.497767065625      16.402351050000      22.229908886477
       176    1   4.000000       14.497767065625       0.000000000000      22.229908886477
       177    1   4.000000        0.966517804375       2.733725175000      20.296874205199
       178    1   4.000000        0.966517804375       8.201175525000      20.296874205199
       179    1   4.000000        0.966517804375      13.668625875000      20.296874205199
       180    1   4.000000        0.966517804375      19.136076225000      20.296874205199
       181    1   4.000000        4.832589021875       2.733725175000      20.296874205199
       182    1   4.000000        4.832589021875       8.201175525000      20.296874205199
       183    1   4.000000        4.832589021875      13.668625875000      20.296874205199
       184    1   4.000000        4.832589021875      19.136076225000      20.296874205199
       185    1   4.000000        8.698660239375       2.733725175000      20.296874205199
       186    1   4.000000        8.698660239375       8.201175525000      20.296874205199
       187    1   4.000000        8.698660239375      13.668625875000      20.296874205199
       188    1   4.000000        8.698660239375      19.136076225000      20.296874205199
       189    1   4.000000       12.564731456875       2.733725175000      20.296874205199
       190    1   4.000000       12.564731456875       8.201175525000      20.296874205199
       191    1   4.000000       12.564731456875      13.668625875000      20.296874205199
       192    1   4.000000       12.564731456875      19.136076225000      20.296874205199
       193    1   4.000000        2.899553413125       5.467450350000      26.095980259389
       194    1   4.000000        2.899553413125      10.934900700000      26.095980259389
       195    1   4.000000        2.899553413125      16.402351050000      26.095980259389
       196    1   4.000000        2.899553413125       0.000000000000      26.095980259389
       197    1   4.000000        6.765624630625       5.467450350000      26.095980259389
       198    1   4.000000        6.765624630625      10.934900700000      26.095980259389
       199    1   4.000000        6.765624630625      16.402351050000      26.095980259389
       200    1   4.000000        6.765624630625       0.000000000000      26.095980259389
       201    1   4.000000       10.631695848125       5.467450350000      26.095980259389
       202    1   4.000000       10.631695848125      10.934900700000      26.095980259389
       203    1   4.000000       10.631695848125      16.402351050000      26.095980259389
       204    1   4.000000       10.631695848125       0.000000000000      26.095980259389
       205    1   4.000000       14.497767065625       5.467450350000      26.095980259389
       206    1   4.000000       14.497767065625      10.934900700000      26.095980259389
       207    1   4.000000       14.497767065625      16.402351050000      26.095980259389
       208    1   4.000000       14.497767065625       0.000000000000      26.095980259389
       209    1   4.000000        0.966517804375       2.733725175000      24.162945578111
       210    1   4.000000        0.966517804375       8.201175525000      24.162945578111
       211    1   4.000000        0.966517804375      13.668625875000      24.162945578111
       212    1   4.000000        0.966517804375      19.136076225000      24.162945578111
       213    1   4.000000        4.832589021875       2.733725175000      24.162945578111
       214    1   4.000000        4.832589021875       8.201175525000      24.162945578111
       215    1   4.000000        4.832589021875      13.668625875000      24.162945578111
       216    1   4.000000        4.832589021875      19.136076225000      24.162945578111
       217    1   4.000000        8.698660239375       2.733725175000      24.162945578111
       218    1   4.000000        8.698660239375       8.201175525000      24.162945578111
       219    1   4.000000        8.698660239375      13.668625875000      24.162945578111
       220    1   4.000000        8.698660239375      19.136076225000      24.162945578111
       221    1   4.000000       12.564731456875       2.733725175000      24.162945578111
       222    1   4.000000       12.564731456875       8.201175525000      24.162945578111
       223    1   4.000000       12.564731456875      13.668625875000      24.162945578111
       224    1   4.000000       12.564731456875      19.136076225000      24.162945578111
       225    1   4.000000        2.899553413125       5.467450350000      29.962051632301
       226    1   4.000000        2.899553413125      10.934900700000      29.962051632301
       227    1   4.000000        2.899553413125      16.402351050000      29.962051632301
       228    1   4.000000        2.899553413125       0.000000000000      29.962051632301
       229    1   4.000000        6.765624630625       5.467450350000      29.962051632301
       230    1   4.000000        6.765624630625      10.934900700000      29.962051632301
       231    1   4.000000        6.765624630625      16.402351050000      29.962051632301
       232    1   4.000000        6.765624630625       0.000000000000      29.962051632301
       233    1   4.000000       10.631695848125       5.467450350000      29.962051632301
       234    1   4.000000       10.631695848125      10.934900700000      29.962051632301
       235    1   4.000000       10.631695848125      16.402351050000      29.962051632301
       236    1   4.000000       10.631695848125       0.000000000000      29.962051632301
       237    1   4.000000       14.497767065625       5.467450350000      29.962051632301
       238    1   4.000000       14.497767065625      10.934900700000      29.962051632301
       239    1   4.000000       14.497767065625      16.402351050000      29.962051632301
       240    1   4.000000       14.497767065625       0.000000000000      29.962051632301
       241    1   4.000000        0.966517804375       2.733725175000      28.029016951023
       242    1   4.000000        0.966517804375       8.201175525000      28.029016951023
       243    1   4.000000        0.966517804375      13.668625875000      28.029016951023
       244    1   4.000000        0.966517804375      19.136076225000      28.029016951023
       245    1   4.000000        4.832589021875       2.733725175000      28.029016951023
       246    1   4.000000        4.832589021875       8.201175525000      28.029016951023
       247    1   4.000000        4.832589021875      13.668625875000      28.029016951023
       248    1   4.000000        4.832589021875      19.136076225000      28.029016951023
       249    1   4.000000        8.698660239375       2.733725175000      28.029016951023
       250    1   4.000000        8.698660239375       8.201175525000      28.029016951023
       251    1   4.000000        8.698660239375      13.668625875000      28.029016951023
       252    1   4.000000        8.698660239375      19.136076225000      28.029016951023
       253    1   4.000000       12.564731456875       2.733725175000      28.029016951023
       254    1   4.000000       12.564731456875       8.201175525000      28.029016951023
       255    1   4.000000       12.564731456875      13.668625875000      28.029016951023
       256    1   4.000000       12.564731456875      19.136076225000      28.029016951023
       257    1   4.000000        2.899553413125       5.467450350000      33.828123005213
       258    1   4.000000        2.899553413125      10.934900700000      33.828123005213
       259    1   4.000000        2.899553413125      16.402351050000      33.828123005213
       260    1   4.000000        2.899553413125       0.000000000000      33.828123005213
       261    1   4.000000        6.765624630625       5.467450350000      33.828123005213
       262    1   4.000000        6.765624630625      10.934900700000      33.828123005213
       263    1   4.000000        6.765624630625      16.402351050000      33.828123005213
       264    1   4.000000        6.765624630625       0.000000000000      33.828123005213
       265    1   4.000000       10.631695848125       5.467450350000      33.828123005213
       266    1   4.000000       10.631695848125      10.934900700000      33.828123005213
       267    1   4.000000       10.631695848125      16.402351050000      33.828123005213
       268    1   4.000000       10.631695848125       0.000000000000      33.828123005213
       269    1   4.000000       14.497767065625       5.467450350000      33.828123005213
       270    1   4.000000       14.497767065625      10.934900700000      33.828123005213
       271    1   4.000000       14.497767065625      16.402351050000      33.828123005213
       272    1   4.000000       14.497767065625       0.000000000000      33.828123005213
       273    1   4.000000        0.966517804375       2.733725175000      31.895088323935
       274    1   4.000000        0.966517804375       8.201175525000      31.895088323935
       275    1   4.000000        0.966517804375      13.668625875000      31.895088323935
       276    1   4.000000        0.966517804375      19.136076225000      31.895088323935
       277    1   4.000000        4.832589021875       2.733725175000      31.895088323935
       278    1   4.000000        4.832589021875       8.201175525000      31.895088323935
       279    1   4.000000        4.832589021875      13.668625875000      31.895088323935
       280    1   4.000000        4.832589021875      19.136076225000      31.895088323935
       281    1   4.000000        8.698660239375       2.733725175000      31.895088323935
       282    1   4.000000        8.698660239375       8.201175525000      31.895088323935
       283    1   4.000000        8.698660239375      13.668625875000      31.895088323935
       284    1   4.000000        8.698660239375      19.136076225000      31.895088323935
       285    1   4.000000       12.564731456875       2.733725175000      31.895088323935
       286    1   4.000000       12.564731456875       8.201175525000      31.895088323935
       287    1   4.000000       12.564731456875      13.668625875000      31.895088323935
       288    1   4.000000       12.564731456875      19.136076225000      31.895088323935
       289    1   4.000000        2.899553413125       5.467450350000      37.694194378125
       290    1   4.000000        2.899553413125      10.934900700000      37.694194378125
       291    1   4.000000        2.899553413125      16.402351050000      37.694194378125
       292    1   4.000000        2.899553413125       0.000000000000      37.694194378125
       293    1   4.000000        6.765624630625       5.467450350000      37.694194378125
       294    1   4.000000        6.765624630625      10.934900700000      37.694194378125
       295    1   4.000000        6.765624630625      16.402351050000      37.694194378125
       296    1   4.000000        6.765624630625       0.000000000000      37.694194378125
       297    1   4.000000       10.631695848125       5.467450350000      37.694194378125
       298    1   4.000000       10.631695848125      10.934900700000      37.694194378125
       299    1   4.000000       10.631695848125      16.402351050000      37.694194378125
       300    1   4.000000       10.631695848125       0.000000000000      37.694194378125
       301    1   4.000000       14.497767065625       5.467450350000      37.694194378125
       302    1   4.000000       14.497767065625      10.934900700000      37.694194378125
       303    1   4.000000       14.497767065625      16.402351050000      37.694194378125
       304    1   4.000000       14.497767065625       0.000000000000      37.694194378125
       305    1   4.000000        0.966517804375       2.733725175000      35.761159696847
       306    1   4.000000        0.966517804375       8.201175525000      35.761159696847
       307    1   4.000000        0.966517804375      13.668625875000      35.761159696847
       308    1   4.000000        0.966517804375      19.136076225000      35.761159696847
       309    1   4.000000        4.832589021875       2.733725175000      35.761159696847
       310    1   4.000000        4.832589021875       8.201175525000      35.761159696847
       311    1   4.000000        4.832589021875      13.668625875000      35.761159696847
       312    1   4.000000        4.832589021875      19.136076225000      35.761159696847
       313    1   4.000000        8.698660239375       2.733725175000      35.761159696847
       314    1   4.000000        8.698660239375       8.201175525000      35.761159696847
       315    1   4.000000        8.698660239375      13.668625875000      35.761159696847
       316    1   4.000000        8.698660239375      19.136076225000      35.761159696847
       317    1   4.000000       12.564731456875       2.733725175000      35.761159696847
       318    1   4.000000       12.564731456875       8.201175525000      35.761159696847
       319    1   4.000000       12.564731456875      13.668625875000      35.761159696847
       320    1   4.000000       12.564731456875      19.136076225000      35.761159696847
       321    1   4.000000        2.899553413125       5.467450350000      41.560265751037
       322    1   4.000000        2.899553413125      10.934900700000      41.560265751037
       323    1   4.000000        2.899553413125      16.402351050000      41.560265751037
       324    1   4.000000        2.899553413125       0.000000000000      41.560265751037
       325    1   4.000000        6.765624630625       5.467450350000      41.560265751037