 # "Ce1092 O2184"
  
        3276  atoms
           2  atom types
 
      0.000000000000      30.928600000000  xlo xhi
      0.000000000000      21.869800000000  ylo yhi
      0.000000000000     115.388000000000  zlo zhi
 
Masses
 
            1   140.11600000            # Ce
            2   15.99900000             # O
 
Atoms # atomic
 
         1         1   4.0        3.866075000000       0.000000000000       20.000202040000
         2         1   4.0        1.933037500000       2.733725000000       21.932951040000
         3         1   4.0        5.799112500000       2.733725000000       21.932951040000
         4         2   -2.0        7.732150000000       4.100587500000       21.932951040000
         5         2   -2.0        3.866075000000       1.366862500000       21.932951040000
         6         2   -2.0        5.799112500000       4.100587500000       20.000202040000
         7         2   -2.0        1.933037500000       1.366862500000       20.000202040000
         8         2   -2.0        3.866075000000       4.100587500000       21.932951040000
         9         2   -2.0        7.732150000000       1.366862500000       21.932951040000
         10         2   -2.0        1.933037500000       4.100587500000       20.000202040000
         11         2   -2.0        5.799112500000       1.366862500000       20.000202040000
         12         1   4.0        3.866075000000       0.000000000000       23.865700040000
         13         1   4.0        7.732150000000       0.000000000000       23.865700040000
         14         1   4.0        5.799112500000       2.733725000000       25.798449040000
         15         1   4.0        1.933037500000       2.733725000000       25.798449040000
         16         2   -2.0        3.866075000000       4.100587500000       25.798449040000
         17         2   -2.0        7.732150000000       1.366862500000       25.798449040000
         18         2   -2.0        1.933037500000       4.100587500000       23.865700040000
         19         2   -2.0        5.799112500000       1.366862500000       23.865700040000
         20         2   -2.0        7.732150000000       4.100587500000       25.798449040000
         21         2   -2.0        3.866075000000       1.366862500000       25.798449040000
         22         2   -2.0        5.799112500000       4.100587500000       23.865700040000
         23         2   -2.0        1.933037500000       1.366862500000       23.865700040000
         24         1   4.0        7.732150000000       0.000000000000       27.732351920000
         25         1   4.0        3.866075000000       0.000000000000       27.732351920000
         26         1   4.0        1.933037500000       2.733725000000       29.665100920000
         27         1   4.0        5.799112500000       2.733725000000       29.665100920000
         28         2   -2.0        7.732150000000       4.100587500000       29.665100920000
         29         2   -2.0        3.866075000000       1.366862500000       29.665100920000
         30         2   -2.0        5.799112500000       4.100587500000       27.732351920000
         31         2   -2.0        1.933037500000       1.366862500000       27.732351920000
         32         2   -2.0        3.866075000000       4.100587500000       29.665100920000
         33         2   -2.0        7.732150000000       1.366862500000       29.665100920000
         34         2   -2.0        1.933037500000       4.100587500000       27.732351920000
         35         2   -2.0        5.799112500000       1.366862500000       27.732351920000
         36         1   4.0        3.866075000000       0.000000000000       31.597849920000
         37         1   4.0        7.732150000000       0.000000000000       31.597849920000
         38         1   4.0        5.799112500000       2.733725000000       33.530598920000
         39         1   4.0        1.933037500000       2.733725000000       33.530598920000
         40         2   -2.0        3.866075000000       4.100587500000       33.530598920000
         41         2   -2.0        7.732150000000       1.366862500000       33.530598920000
         42         2   -2.0        1.933037500000       4.100587500000       31.597849920000
         43         2   -2.0        5.799112500000       1.366862500000       31.597849920000
         44         2   -2.0        7.732150000000       4.100587500000       33.530598920000
         45         2   -2.0        3.866075000000       1.366862500000       33.530598920000
         46         2   -2.0        5.799112500000       4.100587500000       31.597849920000
         47         2   -2.0        1.933037500000       1.366862500000       31.597849920000
         48         1   4.0        7.732150000000       0.000000000000       35.464501800000
         49         1   4.0        3.866075000000       0.000000000000       35.464501800000
         50         1   4.0        1.933037500000       2.733725000000       37.397250800000
         51         1   4.0        5.799112500000       2.733725000000       37.397250800000
         52         2   -2.0        7.732150000000       4.100587500000       37.397250800000
         53         2   -2.0        3.866075000000       1.366862500000       37.397250800000
         54         2   -2.0        5.799112500000       4.100587500000       35.464501800000
         55         2   -2.0        1.933037500000       1.366862500000       35.464501800000
         56         2   -2.0        3.866075000000       4.100587500000       37.397250800000
         57         2   -2.0        7.732150000000       1.366862500000       37.397250800000
         58         2   -2.0        1.933037500000       4.100587500000       35.464501800000
         59         2   -2.0        5.799112500000       1.366862500000       35.464501800000
         60         1   4.0        3.866075000000       0.000000000000       39.329999800000
         61         1   4.0        7.732150000000       0.000000000000       39.329999800000
         62         1   4.0        5.799112500000       2.733725000000       41.262748800000
         63         1   4.0        1.933037500000       2.733725000000       41.262748800000
         64         2   -2.0        3.866075000000       4.100587500000       41.262748800000
         65         2   -2.0        7.732150000000       1.366862500000       41.262748800000
         66         2   -2.0        1.933037500000       4.100587500000       39.329999800000
         67         2   -2.0        5.799112500000       1.366862500000       39.329999800000
         68         2   -2.0        7.732150000000       4.100587500000       41.262748800000
         69         2   -2.0        3.866075000000       1.366862500000       41.262748800000
         70         2   -2.0        5.799112500000       4.100587500000       39.329999800000
         71         2   -2.0        1.933037500000       1.366862500000       39.329999800000
         72         1   4.0        7.732150000000       0.000000000000       43.196651680000
         73         1   4.0        3.866075000000       0.000000000000       43.196651680000
         74         1   4.0        1.933037500000       2.733725000000       45.129400680000
         75         1   4.0        5.799112500000       2.733725000000       45.129400680000
         76         2   -2.0        7.732150000000       4.100587500000       45.129400680000
         77         2   -2.0        3.866075000000       1.366862500000       45.129400680000
         78         2   -2.0        5.799112500000       4.100587500000       43.196651680000
         79         2   -2.0        1.933037500000       1.366862500000       43.196651680000
         80         2   -2.0        3.866075000000       4.100587500000       45.129400680000
         81         2   -2.0        7.732150000000       1.366862500000       45.129400680000
         82         2   -2.0        1.933037500000       4.100587500000       43.196651680000
         83         2   -2.0        5.799112500000       1.366862500000       43.196651680000
         84         1   4.0        3.866075000000       0.000000000000       47.062149680000
         85         1   4.0        7.732150000000       0.000000000000       47.062149680000
         86         1   4.0        5.799112500000       2.733725000000       48.994898680000
         87         1   4.0        1.933037500000       2.733725000000       48.994898680000
         88         2   -2.0        3.866075000000       4.100587500000       48.994898680000
         89         2   -2.0        7.732150000000       1.366862500000       48.994898680000
         90         2   -2.0        1.933037500000       4.100587500000       47.062149680000
         91         2   -2.0        5.799112500000       1.366862500000       47.062149680000
         92         2   -2.0        7.732150000000       4.100587500000       48.994898680000
         93         2   -2.0        3.866075000000       1.366862500000       48.994898680000
         94         2   -2.0        5.799112500000       4.100587500000       47.062149680000
         95         2   -2.0        1.933037500000       1.366862500000       47.062149680000
         96         1   4.0        7.732150000000       0.000000000000       50.928801560000
         97         1   4.0        3.866075000000       0.000000000000       50.928801560000
         98         1   4.0        1.933037500000       2.733725000000       52.861550560000
         99         1   4.0        5.799112500000       2.733725000000       52.861550560000
         100         2   -2.0        7.732150000000       4.100587500000       52.861550560000
         101         2   -2.0        3.866075000000       1.366862500000       52.861550560000
         102         2   -2.0        5.799112500000       4.100587500000       50.928801560000
         103         2   -2.0        1.933037500000       1.366862500000       50.928801560000
         104         2   -2.0        3.866075000000       4.100587500000       52.861550560000
         105         2   -2.0        7.732150000000       1.366862500000       52.861550560000
         106         2   -2.0        1.933037500000       4.100587500000       50.928801560000
         107         2   -2.0        5.799112500000       1.366862500000       50.928801560000
         108         1   4.0        3.866075000000       0.000000000000       54.794299560000
         109         1   4.0        7.732150000000       0.000000000000       54.794299560000
         110         1   4.0        5.799112500000       2.733725000000       56.727048560000
         111         1   4.0        1.933037500000       2.733725000000       56.727048560000
         112         2   -2.0        3.866075000000       4.100587500000       56.727048560000
         113         2   -2.0        7.732150000000       1.366862500000       56.727048560000
         114         2   -2.0        1.933037500000       4.100587500000       54.794299560000
         115         2   -2.0        5.799112500000       1.366862500000       54.794299560000
         116         2   -2.0        7.732150000000       4.100587500000       56.727048560000
         117         2   -2.0        3.866075000000       1.366862500000       56.727048560000
         118         2   -2.0        5.799112500000       4.100587500000       54.794299560000
         119         2   -2.0        1.933037500000       1.366862500000       54.794299560000
         120         1   4.0        7.732150000000       0.000000000000       58.660951440000
         121         1   4.0        3.866075000000       0.000000000000       58.660951440000
         122         1   4.0        1.933037500000       2.733725000000       60.593700440000
         123         1   4.0        5.799112500000       2.733725000000       60.593700440000
         124         2   -2.0        7.732150000000       4.100587500000       60.593700440000
         125         2   -2.0        3.866075000000       1.366862500000       60.593700440000
         126         2   -2.0        5.799112500000       4.100587500000       58.660951440000
         127         2   -2.0        1.933037500000       1.366862500000       58.660951440000
         128         2   -2.0        3.866075000000       4.100587500000       60.593700440000
         129         2   -2.0        7.732150000000       1.366862500000       60.593700440000
         130         2   -2.0        1.933037500000       4.100587500000       58.660951440000
         131         2   -2.0        5.799112500000       1.366862500000       58.660951440000
         132         1   4.0        3.866075000000       0.000000000000       62.526449440000
         133         1   4.0        7.732150000000       0.000000000000       62.526449440000
         134         1   4.0        5.799112500000       2.733725000000       64.459198440000
         135         1   4.0        1.933037500000       2.733725000000       64.459198440000
         136         2   -2.0        3.866075000000       4.100587500000       64.459198440000
         137         2   -2.0        7.732150000000       1.366862500000       64.459198440000
         138         2   -2.0        1.933037500000       4.100587500000       62.526449440000
         139         2   -2.0        5.799112500000       1.366862500000       62.526449440000
         140         2   -2.0        7.732150000000       4.100587500000       64.459198440000
         141         2   -2.0        3.866075000000       1.366862500000       64.459198440000
         142         2   -2.0        5.799112500000       4.100587500000       62.526449440000
         143         2   -2.0        1.933037500000       1.366862500000       62.526449440000
         144         1   4.0        7.732150000000       0.000000000000       66.393101320000
         145         1   4.0        3.866075000000       0.000000000000       66.393101320000
         146         1   4.0        1.933037500000       2.733725000000       68.325850320000
         147         1   4.0        5.799112500000       2.733725000000       68.325850320000
         148         2   -2.0        7.732150000000       4.100587500000       68.325850320000
         149         2   -2.0        3.866075000000       1.366862500000       68.325850320000
         150         2   -2.0        5.799112500000       4.100587500000       66.393101320000
         151         2   -2.0        1.933037500000       1.366862500000       66.393101320000
         152         2   -2.0        3.866075000000       4.100587500000       68.325850320000
         153         2   -2.0        7.732150000000       1.366862500000       68.325850320000
         154         2   -2.0        1.933037500000       4.100587500000       66.393101320000
         155         2   -2.0        5.799112500000       1.366862500000       66.393101320000
         156         1   4.0        3.866075000000       0.000000000000       70.258599320000
         157         1   4.0        7.732150000000       0.000000000000       70.258599320000
         158         1   4.0        5.799112500000       2.733725000000       72.191348320000
         159         1   4.0        1.933037500000       2.733725000000       72.191348320000
         160         2   -2.0        3.866075000000       4.100587500000       72.191348320000
         161         2   -2.0        7.732150000000       1.366862500000       72.191348320000
         162         2   -2.0        1.933037500000       4.100587500000       70.258599320000
         163         2   -2.0        5.799112500000       1.366862500000       70.258599320000
         164         2   -2.0        7.732150000000       4.100587500000       72.191348320000
         165         2   -2.0        3.866075000000       1.366862500000       72.191348320000
         166         2   -2.0        5.799112500000       4.100587500000       70.258599320000
         167         2   -2.0        1.933037500000       1.366862500000       70.258599320000
         168         1   4.0        7.732150000000       0.000000000000       74.125251200000
         169         1   4.0        3.866075000000       0.000000000000       74.125251200000
         170         1   4.0        1.933037500000       2.733725000000       76.058000200000
         171         1   4.0        5.799112500000       2.733725000000       76.058000200000
         172         2   -2.0        7.732150000000       4.100587500000       76.058000200000
         173         2   -2.0        3.866075000000       1.366862500000       76.058000200000
         174         2   -2.0        5.799112500000       4.100587500000       74.125251200000
         175         2   -2.0        1.933037500000       1.366862500000       74.125251200000
         176         2   -2.0        3.866075000000       4.100587500000       76.058000200000
         177         2   -2.0        7.732150000000       1.366862500000       76.058000200000
         178         2   -2.0        1.933037500000       4.100587500000       74.125251200000
         179         2   -2.0        5.799112500000       1.366862500000       74.125251200000
         180         1   4.0        3.866075000000       0.000000000000       77.990749200000
         181         1   4.0        7.732150000000       0.000000000000       77.990749200000
         182         1   4.0        5.799112500000       2.733725000000       79.923498200000
         183         1   4.0        1.933037500000       2.733725000000       79.923498200000
         184         2   -2.0        3.866075000000       4.100587500000       79.923498200000
         185         2   -2.0        7.732150000000       1.366862500000       79.923498200000
         186         2   -2.0        1.933037500000       4.100587500000       77.990749200000
         187         2   -2.0        5.799112500000       1.366862500000       77.990749200000
         188         2   -2.0        7.732150000000       4.100587500000       79.923498200000
         189         2   -2.0        3.866075000000       1.366862500000       79.923498200000
         190         2   -2.0        5.799112500000       4.100587500000       77.990749200000
         191         2   -2.0        1.933037500000       1.366862500000       77.990749200000
         192         1   4.0        7.732150000000       0.000000000000       81.857401080000
         193         1   4.0        3.866075000000       0.000000000000       81.857401080000
         194         1   4.0        1.933037500000       2.733725000000       83.790150080000
         195         1   4.0        5.799112500000       2.733725000000       83.790150080000
         196         2   -2.0        7.732150000000       4.100587500000       83.790150080000
         197         2   -2.0        3.866075000000       1.366862500000       83.790150080000
         198         2   -2.0        5.799112500000       4.100587500000       81.857401080000
         199         2   -2.0        1.933037500000       1.366862500000       81.857401080000
         200         2   -2.0        3.866075000000       4.100587500000       83.790150080000
         201         2   -2.0        7.732150000000       1.366862500000       83.790150080000
         202         2   -2.0        1.933037500000       4.100587500000       81.857401080000
         203         2   -2.0        5.799112500000       1.366862500000       81.857401080000
         204         1   4.0        3.866075000000       0.000000000000       85.722899080000
         205         1   4.0        7.732150000000       0.000000000000       85.722899080000
         206         1   4.0        5.799112500000       2.733725000000       87.655648080000
         207         1   4.0        1.933037500000       2.733725000000       87.655648080000
         208         2   -2.0        3.866075000000       4.100587500000       87.655648080000
         209         2   -2.0        7.732150000000       1.366862500000       87.655648080000
         210         2   -2.0        1.933037500000       4.100587500000       85.722899080000
         211         2   -2.0        5.799112500000       1.366862500000       85.722899080000
         212         2   -2.0        7.732150000000       4.100587500000       87.655648080000
         213         2   -2.0        3.866075000000       1.366862500000       87.655648080000
         214         2   -2.0        5.799112500000       4.100587500000       85.722899080000
         215         2   -2.0        1.933037500000       1.366862500000       85.722899080000
         216         1   4.0        7.732150000000       0.000000000000       89.589550960000
         217         1   4.0        3.866075000000       0.000000000000       89.589550960000
         218         1   4.0        1.933037500000       2.733725000000       91.522299960000
         219         1   4.0        5.799112500000       2.733725000000       91.522299960000
         220         2   -2.0        7.732150000000       4.100587500000       91.522299960000
         221         2   -2.0        3.866075000000       1.366862500000       91.522299960000
         222         2   -2.0        5.799112500000       4.100587500000       89.589550960000
         223         2   -2.0        1.933037500000       1.366862500000       89.589550960000
         224         2   -2.0        3.866075000000       4.100587500000       91.522299960000
         225         2   -2.0        7.732150000000       1.366862500000       91.522299960000
         226         2   -2.0        1.933037500000       4.100587500000       89.589550960000
         227         2   -2.0        5.799112500000       1.366862500000       89.589550960000
         228         1   4.0        3.866075000000       0.000000000000       93.455048960000
         229         1   4.0        7.732150000000       0.000000000000       93.455048960000
         230         2   -2.0        1.933037500000       4.100587500000       93.455048960000
         231         2   -2.0        5.799112500000       1.366862500000       93.455048960000
         232         2   -2.0        5.799112500000       4.100587500000       93.455048960000
         233         2   -2.0        1.933037500000       1.366862500000       93.455048960000
         234         1   4.0        3.866075000000       5.467450000000       20.000202040000
         235         1   4.0        1.933037500000       8.201175000000       21.932951040000
         236         1   4.0        5.799112500000       8.201175000000       21.932951040000
         237         2   -2.0        7.732150000000       9.568037500000       21.932951040000
         238         2   -2.0        3.866075000000       6.834312500000       21.932951040000
         239         2   -2.0        5.799112500000       9.568037500000       20.000202040000
         240         2   -2.0        1.933037500000       6.834312500000       20.000202040000
         241         2   -2.0        3.866075000000       9.568037500000       21.932951040000
         242         2   -2.0        7.732150000000       6.834312500000       21.932951040000
         243         2   -2.0        1.933037500000       9.568037500000       20.000202040000
         244         2   -2.0        5.799112500000       6.834312500000       20.000202040000
         245         1   4.0        3.866075000000       5.467450000000       23.865700040000
         246         1   4.0        7.732150000000       5.467450000000       23.865700040000
         247         1   4.0        5.799112500000       8.201175000000       25.798449040000
         248         1   4.0        1.933037500000       8.201175000000       25.798449040000
         249         2   -2.0        3.866075000000       9.568037500000       25.798449040000
         250         2   -2.0        7.732150000000       6.834312500000       25.798449040000
         251         2   -2.0        1.933037500000       9.568037500000       23.865700040000
         252         2   -2.0        5.799112500000       6.834312500000       23.865700040000
         253         2   -2.0        7.732150000000       9.568037500000       25.798449040000
         254         2   -2.0        3.866075000000       6.834312500000       25.798449040000
         255         2   -2.0        5.799112500000       9.568037500000       23.865700040000
         256         2   -2.0        1.933037500000       6.834312500000       23.865700040000
         257         1   4.0        7.732150000000       5.467450000000       27.732351920000
         258         1   4.0        3.866075000000       5.467450000000       27.732351920000
         259         1   4.0        1.933037500000       8.201175000000       29.665100920000
         260         1   4.0        5.799112500000       8.201175000000       29.665100920000
         261         2   -2.0        7.732150000000       9.568037500000       29.665100920000
         262         2   -2.0        3.866075000000       6.834312500000       29.665100920000
         263         2   -2.0        5.799112500000       9.568037500000       27.732351920000
         264         2   -2.0        1.933037500000       6.834312500000       27.732351920000
         265         2   -2.0        3.866075000000       9.568037500000       29.665100920000
         266         2   -2.0        7.732150000000       6.834312500000       29.665100920000
         267         2   -2.0        1.933037500000       9.568037500000       27.732351920000
         268         2   -2.0        5.799112500000       6.834312500000       27.732351920000
         269         1   4.0        3.866075000000       5.467450000000       31.597849920000
         270         1   4.0        7.732150000000       5.467450000000       31.597849920000
         271         1   4.0        5.799112500000       8.201175000000       33.530598920000
         272         1   4.0        1.933037500000       8.201175000000       33.530598920000
         273         2   -2.0        3.866075000000       9.568037500000       33.530598920000
         274         2   -2.0        7.732150000000       6.834312500000       33.530598920000
         275         2   -2.0        1.933037500000       9.568037500000       31.597849920000
         276         2   -2.0        5.799112500000       6.834312500000       31.597849920000
         277         2   -2.0        7.732150000000       9.568037500000       33.530598920000
         278         2   -2.0        3.866075000000       6.834312500000       33.530598920000
         279         2   -2.0        5.799112500000       9.568037500000       31.597849920000
         280         2   -2.0        1.933037500000       6.834312500000       31.597849920000
         281         1   4.0        7.732150000000       5.467450000000       35.464501800000
         282         1   4.0        3.866075000000       5.467450000000       35.464501800000
         283         1   4.0        1.933037500000       8.201175000000       37.397250800000
         284         1   4.0        5.799112500000       8.201175000000       37.397250800000
         285         2   -2.0        7.732150000000       9.568037500000       37.397250800000
         286         2   -2.0        3.866075000000       6.834312500000       37.397250800000
         287         2   -2.0        5.799112500000       9.568037500000       35.464501800000
         288         2   -2.0        1.933037500000       6.834312500000       35.464501800000
         289         2   -2.0        3.866075000000       9.568037500000       37.397250800000
         290         2   -2.0        7.732150000000       6.834312500000       37.397250800000
         291         2   -2.0        1.933037500000       9.568037500000       35.464501800000
         292         2   -2.0        5.799112500000       6.834312500000       35.464501800000
         293         1   4.0        3.866075000000       5.467450000000       39.329999800000
         294         1   4.0        7.732150000000       5.467450000000       39.329999800000
         295         1   4.0        5.799112500000       8.201175000000       41.262748800000
         296         1   4.0        1.933037500000       8.201175000000       41.262748800000
         297         2   -2.0        3.866075000000       9.568037500000       41.262748800000
         298         2   -2.0        7.732150000000       6.834312500000       41.262748800000
         299         2   -2.0        1.933037500000       9.568037500000       39.329999800000
         300         2   -2.0        5.799112500000       6.834312500000       39.329999800000
         301         2   -2.0        7.732150000000       9.568037500000       41.262748800000
         302         2   -2.0        3.866075000000       6.834312500000       41.262748800000
         303         2   -2.0        5.799112500000       9.568037500000       39.329999800000
         304         2   -2.0        1.933037500000       6.834312500000       39.329999800000
         305         1   4.0        7.732150000000       5.467450000000       43.196651680000
         306         1   4.0        3.866075000000       5.467450000000       43.196651680000
         307         1   4.0        1.933037500000       8.201175000000       45.129400680000
         308         1   4.0        5.799112500000       8.201175000000       45.129400680000
         309         2   -2.0        7.732150000000       9.568037500000       45.129400680000
         310         2   -2.0        3.866075000000       6.834312500000       45.129400680000
         311         2   -2.0        5.799112500000       9.568037500000       43.196651680000
         312         2   -2.0        1.933037500000       6.834312500000       43.196651680000
         313         2   -2.0        3.866075000000       9.568037500000       45.129400680000
         314         2   -2.0        7.732150000000       6.834312500000       45.129400680000