ITEM: TIMESTEP
0
ITEM: NUMBER OF ATOMS
1150
ITEM: BOX BOUNDS pp pp pp
-2.0000000000000000e+01 2.0000000000000000e+01
-2.0000000000000000e+01 2.0000000000000000e+01
-2.0000000000000000e+01 2.0000000000000000e+01
ITEM: ATOMS id type xs ys zs
970 1 0.611353 0.00267822 0.0128306
798 1 0.527462 0.0601545 0.0161255
21 1 0.0623004 0.0831812 0.0270253
108 1 0.101333 0.101388 0.0243124
351 1 0.501522 0.0790753 0.0179752
402 1 0.368246 0.110193 0.00904333
332 1 0.424771 0.128817 0.0292212
83 1 0.169225 0.169692 0.0162222
810 1 0.568404 0.165051 0.00492214
232 1 0.812471 0.204439 0.0124769
93 1 0.169527 0.242103 0.0243979
5 1 0.623861 0.234069 0.00182495
569 1 0.971275 0.226335 0.00720117
989 1 0.0156074 0.313264 0.0354659
17 1 0.342673 0.29702 0.0209641
624 1 0.635764 0.286132 0.0243598
328 1 0.862456 0.292558 0.0305096
804 1 0.033101 0.329327 0.00239509
229 1 0.0889122 0.347654 0.0274084
370 1 0.0727282 0.342418 0.0150885
499 1 0.893516 0.329804 0.0080743
734 1 0.158291 0.39906 0.000495144
1125 2 0.44594 0.412314 0.0142859
961 1 0.776367 0.408046 0.0239001
1066 2 0.406196 0.442212 0.0202842
657 1 0.162227 0.548879 0.0103807
286 1 0.201258 0.546142 0.0125468
455 1 0.872586 0.548225 0.0167816
41 1 0.100651 0.63902 0.0159403
1102 2 0.301607 0.610832 0.0213375
1097 2 0.362951 0.61464 0.0154631
1016 2 0.656461 0.634305 0.0216417
40 1 0.085004 0.661869 0.0245196
1041 2 0.635787 0.667803 0.0211173
172 1 0.0949428 0.703934 0.0165265
969 1 0.347517 0.713394 0.00651793
664 1 0.0425869 0.758613 0.00403508
613 1 0.242152 0.8481 0.0135067
593 1 0.261851 0.936218 0.0168415
313 1 0.656272 0.956507 0.0190521
178 1 0.92955 0.94663 0.0158356
68 1 0.133336 0.978938 0.012794
813 1 0.70798 0.0132123 0.0584202
431 1 0.288217 0.0547425 0.0577959
967 1 0.0574228 0.105376 0.0467012
34 1 0.0805664 0.0797313 0.0447816
30 1 0.554299 0.10377 0.0628827
62 1 0.650152 0.112396 0.038719
366 1 0.362479 0.188616 0.0660475
511 1 0.019292 0.240796 0.0663372
233 1 0.699127 0.235561 0.0656786
43 1 0.366888 0.285776 0.0436676
1099 2 0.443643 0.311792 0.0706528
54 1 0.80296 0.353547 0.0701896
1059 2 0.477712 0.40226 0.0656272
800 1 0.780056 0.405905 0.0533356
308 1 0.082968 0.442556 0.0380433
1147 2 0.407595 0.443046 0.046943
1078 2 0.481077 0.462264 0.0571876
751 1 0.914409 0.466654 0.0479176
874 1 0.797558 0.553404 0.0658789
975 1 0.0443621 0.594517 0.0430525
91 1 0.80827 0.600587 0.0581323
606 1 0.991883 0.574644 0.0459824
1133 2 0.688768 0.621692 0.0423624
806 1 0.261538 0.66425 0.0581436
841 1 0.3521 0.74279 0.0633815
94 1 0.055918 0.813415 0.058253
952 1 0.65061 0.800622 0.0533637
240 1 0.327115 0.823885 0.0409043
644 1 0.633417 0.839713 0.0537874
714 1 0.0897171 0.875471 0.0419115
705 1 0.94198 0.857682 0.053819
349 1 0.331587 0.978404 0.0367781
320 1 0.851789 0.0105369 0.0931896
10 1 0.894508 0.0026232 0.0881294
192 1 0.00821655 0.0956203 0.0910742
442 1 0.0214836 0.0743199 0.0940357
7 1 0.0927653 0.105616 0.093975
466 1 0.11579 0.0761634 0.0775438
425 1 0.241755 0.16928 0.0850878
112 1 0.74018 0.203493 0.0987916
310 1 0.898684 0.189925 0.0752379
450 1 0.333683 0.216225 0.0879277
265 1 0.860017 0.306544 0.0777914
579 1 0.751136 0.335163 0.0842234
301 1 0.787728 0.338139 0.0982292
521 1 0.986633 0.343671 0.0829232
667 1 0.2545 0.386273 0.0873074
1126 2 0.301832 0.392057 0.0921889
1092 2 0.455606 0.36439 0.0920083
1086 2 0.596618 0.360403 0.0781683
262 1 0.983067 0.413523 0.0740395
85 1 0.168409 0.441787 0.106627
864 1 0.814095 0.494621 0.0974561
398 1 0.108676 0.519373 0.0952005
258 1 0.879252 0.58958 0.0757668
167 1 0.769597 0.616832 0.0885529
582 1 0.841412 0.618259 0.0720701
987 1 0.8407 0.645213 0.0914839
722 1 0.00141047 0.705783 0.0933875
359 1 0.239231 0.748504 0.098896
504 1 0.65602 0.724406 0.0916515
887 1 0.761452 0.722324 0.101825
371 1 0.132075 0.782774 0.0896281
930 1 0.950959 0.776229 0.0769694
545 1 0.468067 0.802349 0.0826899
213 1 0.54976 0.81413 0.0892922
216 1 0.27083 0.838823 0.0975175
710 1 0.0208172 0.875474 0.0945282
867 1 0.0246241 0.857624 0.0832318
756 1 0.145772 0.985189 0.0764324
505 1 0.190931 0.969661 0.09585
986 1 0.486642 0.99834 0.0984614
720 1 0.815016 0.973231 0.089494
435 1 0.0856193 0.00310068 0.113202
387 1 0.618493 0.00673033 0.116691
567 1 0.771882 0.0179767 0.135217
894 1 0.214497 0.0471906 0.13276
939 1 0.938719 0.04356 0.113204
419 1 0.0411793 0.100978 0.13112
346 1 0.264181 0.0868163 0.122098
212 1 0.63058 0.163451 0.12748
883 1 0.22456 0.179217 0.107251
559 1 0.385981 0.188321 0.113388
312 1 0.881789 0.221285 0.136887
296 1 0.225933 0.261685 0.136577
1048 2 0.549432 0.301797 0.118321
1129 2 0.573052 0.285941 0.129974
45 1 0.738341 0.305237 0.120412
95 1 0.0576162 0.355455 0.138597
1101 2 0.448137 0.34074 0.124121
1103 2 0.559817 0.343775 0.138645
672 1 0.71252 0.330941 0.121132
377 1 0.893043 0.368484 0.11385
771 1 0.956468 0.363547 0.129816
587 1 0.824978 0.410669 0.107482
991 1 0.807607 0.442681 0.132795
378 1 0.0295483 0.617965 0.132379
1007 2 0.30741 0.634159 0.130701
290 1 0.0820876 0.645928 0.117326
1009 2 0.606636 0.723794 0.111727
202 1 0.42957 0.791167 0.138114
334 1 0.545594 0.806279 0.132128
463 1 0.32569 0.876189 0.114485
475 1 0.430827 0.908261 0.135006
700 1 0.48616 0.894338 0.138822
184 1 0.475871 0.959964 0.108415
19 1 0.856961 0.951873 0.127981
709 1 0.907893 0.960917 0.127686
356 1 0.204318 0.971031 0.119393
744 1 0.19873 0.0529643 0.170277
599 1 0.94015 0.100622 0.148675
494 1 0.832875 0.123649 0.163997
344 1 0.110558 0.143461 0.151129
583 1 0.282928 0.177437 0.178041
983 1 0.351887 0.157741 0.154153
476 1 0.0526099 0.214206 0.167496
205 1 0.083607 0.183207 0.157744
525 1 0.172202 0.190883 0.163076
376 1 0.436496 0.180054 0.175337
124 1 0.477254 0.207066 0.166653
551 1 0.0734354 0.228426 0.163933
391 1 0.139538 0.22325 0.155728
254 1 0.383546 0.249311 0.176625
662 1 0.109556 0.30988 0.153367
1117 2 0.335448 0.376738 0.164457
561 1 0.253313 0.423881 0.175678
1136 2 0.553961 0.418654 0.146004
464 1 0.15401 0.446074 0.167617
1054 2 0.621672 0.448672 0.16574
549 1 0.17198 0.465233 0.177483
386 1 0.216846 0.532585 0.161518
767 1 0.169845 0.591192 0.15646
1088 2 0.338822 0.575226 0.146802
1130 2 0.484746 0.625563 0.161324
133 1 0.759424 0.637719 0.143758
623 1 0.924354 0.620941 0.160269
152 1 0.0781605 0.643433 0.174765
655 1 0.791732 0.644562 0.15706
1150 2 0.417993 0.711182 0.162195
489 1 0.857958 0.701266 0.173755
908 1 0.332049 0.745176 0.164665
960 1 0.251372 0.808662 0.174259
25 1 0.814828 0.815087 0.171996
221 1 0.194198 0.881965 0.178017
411 1 0.297725 0.8587 0.167968
392 1 0.3245 0.873633 0.150927
440 1 0.334855 0.916057 0.169841
776 1 0.547745 0.94533 0.154196
683 1 0.747959 0.941285 0.174485
502 1 0.628427 0.975971 0.149579
533 1 0.084252 0.0229787 0.203532
842 1 0.253467 0.0213125 0.199882
859 1 0.357294 0.0335103 0.208111
564 1 0.852683 0.039639 0.212366
97 1 0.185701 0.0723029 0.194086
210 1 0.813657 0.129006 0.201976
837 1 0.517354 0.171013 0.207548
906 1 0.28769 0.201773 0.194906
139 1 0.338859 0.202844 0.200361
146 1 0.369501 0.198916 0.181454
453 1 0.245388 0.239018 0.179765
698 1 0.731316 0.224382 0.191845
163 1 0.844661 0.222062 0.197704
253 1 0.924986 0.234617 0.210895
1110 2 0.416688 0.278952 0.189451
1004 2 0.482701 0.254677 0.203685
543 1 0.693239 0.266746 0.204985
803 1 0.0587461 0.345225 0.191605
1065 2 0.324022 0.337707 0.179706
321 1 0.237959 0.374141 0.191832
928 1 0.973724 0.371702 0.200824
685 1 0.00912855 0.423525 0.191464
73 1 0.118606 0.403713 0.206163
28 1 0.80207 0.394014 0.190413
560 1 0.164303 0.44792 0.185295
322 1 0.118491 0.480109 0.190904
32 1 0.204229 0.479098 0.202377
1056 2 0.472363 0.498146 0.185121
1044 2 0.564408 0.500408 0.203554
491 1 0.949519 0.566561 0.186168
37 1 0.055013 0.60339 0.180029
614 1 0.00675961 0.608688 0.211052
1122 2 0.663599 0.607505 0.18544
336 1 0.967728 0.61065 0.186645
481 1 0.232919 0.677705 0.193116
737 1 0.107262 0.744522 0.180833
557 1 0.796082 0.745833 0.214214
775 1 0.812622 0.738751 0.18442
681 1 0.192526 0.777723 0.190004
757 1 0.600152 0.756779 0.190625
716 1 0.765087 0.810149 0.180331
641 1 0.992193 0.785934 0.192209
531 1 0.305339 0.824549 0.189857
733 1 0.656741 0.850074 0.190644
424 1 0.556664 0.859237 0.197633
77 1 0.0427179 0.960444 0.187662
770 1 0.693518 0.95741 0.194468
107 1 0.922767 0.945748 0.183144
635 1 0.430652 0.969013 0.197905
885 1 0.408224 0.0253596 0.219296
884 1 0.584284 0.0574297 0.221777
375 1 0.924859 0.101697 0.217492
338 1 0.987987 0.089143 0.22663
547 1 0.289886 0.121629 0.215946
868 1 0.877141 0.111099 0.237632
918 1 0.868276 0.121094 0.230084
125 1 0.937713 0.138289 0.229304
211 1 0.618505 0.207665 0.217863
24 1 0.961754 0.205344 0.222626
193 1 0.231228 0.254312 0.225641
1131 2 0.433437 0.268719 0.218112
160 1 0.153526 0.319227 0.249174
666 1 0.770002 0.426563 0.249554
215 1 0.898518 0.396397 0.240214
1058 2 0.278362 0.437994 0.232073
1034 2 0.663083 0.430825 0.237017
784 1 0.0864814 0.492606 0.228037
118 1 0.248795 0.491296 0.219058
1134 2 0.742044 0.532478 0.215991
446 1 0.144377 0.536636 0.235528
1072 2 0.370712 0.552679 0.240741
429 1 0.0447188 0.588459 0.231169
462 1 0.80809 0.57186 0.249499
1035 2 0.521696 0.644277 0.231048
115 1 0.744074 0.644923 0.228859
879 1 0.879974 0.726972 0.218366
53 1 0.0345582 0.819078 0.236021
926 1 0.0979246 0.818422 0.225352
658 1 0.213114 0.802357 0.220481
183 1 0.815243 0.795575 0.224459
528 1 0.120595 0.837344 0.245625
916 1 0.0793649 0.885241 0.248507
88 1 0.87338 0.890118 0.21959
335 1 0.895636 0.94718 0.247335
345 1 0.0170177 0.0160812 0.276032
188 1 0.967636 0.0646912 0.264278
279 1 0.296607 0.0726039 0.254358
400 1 0.315945 0.0830769 0.272932
988 1 0.121564 0.121037 0.266854
319 1 0.62338 0.140672 0.275888
480 1 0.0999118 0.217485 0.262405
740 1 0.845851 0.220103 0.263959
747 1 0.122941 0.270795 0.258083
592 1 0.0607676 0.320895 0.275199
1107 2 0.583852 0.303855 0.276776
439 1 0.240634 0.33196 0.256655
689 1 0.102361 0.375633 0.257235
778 1 0.0956969 0.377776 0.285276
955 1 0.154719 0.359866 0.275609
1042 2 0.70937 0.37799 0.271912
1090 2 0.407891 0.427524 0.277657
594 1 0.0546456 0.429301 0.255105
1043 2 0.264204 0.481995 0.285038
1040 2 0.472808 0.490146 0.252024
274 1 0.881863 0.470178 0.27943
639 1 0.965405 0.568767 0.272804
412 1 0.0318662 0.575729 0.278073
627 1 0.14676 0.598278 0.260088
936 1 0.0140792 0.629515 0.265343
31 1 0.86914 0.641177 0.263057
1111 2 0.305566 0.650823 0.279351
1052 2 0.511642 0.674295 0.261874
58 1 0.216917 0.730544 0.256135
1039 2 0.50397 0.717284 0.274812
677 1 0.728253 0.742087 0.255323
777 1 0.467172 0.753094 0.25371
495 1 0.979341 0.779809 0.257006
586 1 0.234593 0.808251 0.279635
390 1 0.477289 0.797957 0.269658
417 1 0.729387 0.807952 0.250246
100 1 0.817506 0.81783 0.263723
81 1 0.882837 0.84151 0.26081
136 1 0.631872 0.871201 0.281243
444 1 0.0540797 0.916897 0.281262
602 1 0.132562 0.963365 0.278063
882 1 0.204615 0.960271 0.275494
591 1 0.370916 0.988175 0.256889
626 1 0.476825 0.995435 0.277155
458 1 0.77057 0.971932 0.260561
670 1 0.752601 0.96866 0.272404
540 1 0.868926 0.0348252 0.30797
838 1 0.256325 0.0516624 0.290339
631 1 0.434941 0.0481519 0.28839
852 1 0.762127 0.067609 0.304886
217 1 0.975906 0.0525567 0.320889
214 1 0.733213 0.103368 0.301995
696 1 0.106273 0.127168 0.309082
243 1 0.578102 0.162926 0.291822
650 1 0.378663 0.192796 0.320766
914 1 0.976211 0.182679 0.288715
915 1 0.210223 0.217368 0.310054
131 1 0.161317 0.25271 0.295722
105 1 0.566089 0.256757 0.309587
409 1 0.837583 0.256874 0.288304
872 1 0.914991 0.253544 0.315066
590 1 0.0215572 0.311614 0.297577
395 1 0.154716 0.319647 0.302916
200 1 0.7647 0.309888 0.286548
318 1 0.972233 0.317029 0.306574
56 1 0.0454181 0.34178 0.288353
645 1 0.0044255 0.379325 0.309496
67 1 0.278121 0.373672 0.312854
923 1 0.787194 0.365105 0.314132
536 1 0.128842 0.4465 0.320206
721 1 0.125748 0.446083 0.319034
1120 2 0.321739 0.466854 0.320396
384 1 0.963318 0.491599 0.297832
354 1 0.189476 0.518315 0.318151
1033 2 0.529899 0.506777 0.312543
1047 2 0.332514 0.556101 0.291735
786 1 0.156764 0.737389 0.298473
861 1 0.43766 0.745422 0.306512
523 1 0.0263433 0.752681 0.307048
381 1 0.729984 0.837585 0.293431
490 1 0.301951 0.896431 0.314211
905 1 0.461707 0.914697 0.314886
752 1 0.68031 0.965686 0.290432
979 1 0.0129722 0.0229877 0.354745
223 1 0.686441 0.0187618 0.329708
484 1 0.69013 0.00763692 0.353763
479 1 0.906826 0.0245924 0.324038
275 1 0.375561 0.051309 0.350962
718 1 0.952408 0.120565 0.338492
358 1 0.051297 0.147876 0.346894
697 1 0.74351 0.164655 0.349174
316 1 0.802949 0.160369 0.322965
801 1 0.860665 0.195355 0.339359
977 1 0.110979 0.229745 0.331412
57 1 0.346953 0.239801 0.328566
250 1 0.144539 0.262709 0.346356
430 1 0.253899 0.276333 0.334878
1067 2 0.578141 0.320397 0.33935
142 1 0.669085 0.303941 0.339391
554 1 0.661944 0.292697 0.352304
532 1 0.924159 0.340057 0.335639
649 1 0.0257275 0.402472 0.344522
922 1 0.180307 0.417347 0.347283
1109 2 0.531142 0.396378 0.357014
251 1 0.206967 0.486425 0.353052
534 1 0.75418 0.495826 0.343804
175 1 0.129083 0.502132 0.33356
1010 2 0.644321 0.602333 0.337603
869 1 0.877111 0.60096 0.341525
819 1 0.0240758 0.641777 0.339257
835 1 0.787152 0.664386 0.341346
596 1 0.747291 0.717637 0.331727
9 1 0.867301 0.734297 0.330035
410 1 0.8651 0.73995 0.332328
821 1 0.11476 0.777672 0.340553
966 1 0.596225 0.755121 0.322607
717 1 0.820953 0.751018 0.353659
995 1 0.00486999 0.849845 0.337488
519 1 0.657575 0.862875 0.338803
827 1 0.0732378 0.90744 0.339677
477 1 0.11108 0.91571 0.333271
173 1 0.761289 0.977828 0.351043
36 1 0.322187 0.00293706 0.363126
516 1 0.265845 0.0510128 0.37293
647 1 0.477841 0.0723145 0.390137
248 1 0.167258 0.108252 0.387813
501 1 0.406326 0.127826 0.364588
862 1 0.550552 0.134133 0.380907
643 1 0.0443387 0.200177 0.380059
29 1 0.262943 0.279608 0.363927
281 1 0.920822 0.259081 0.373258
47 1 0.999063 0.254143 0.38711
513 1 0.125204 0.295375 0.36407
1084 2 0.503737 0.30606 0.387101
665 1 0.817595 0.317926 0.374652
459 1 0.240873 0.350472 0.386279
875 1 0.226771 0.334467 0.390344
1023 2 0.449624 0.325664 0.383084
912 1 0.103074 0.362907 0.37352
61 1 0.0824905 0.417467 0.373921
901 1 0.0887964 0.401878 0.365596
651 1 0.113728 0.418598 0.369545
1114 2 0.540335 0.41286 0.375707
1121 2 0.700922 0.398847 0.358055
474 1 0.121047 0.435614 0.364933
1098 2 0.327568 0.440408 0.378437
86 1 0.0854688 0.474111 0.386955
1063 2 0.379216 0.47587 0.382912
755 1 0.00830343 0.555684 0.386217
342 1 0.094457 0.53837 0.380645
225 1 0.145989 0.633569 0.389442
789 1 0.726759 0.639994 0.373616
291 1 0.904958 0.637494 0.363872
570 1 0.0300265 0.655583 0.3885
585 1 0.901212 0.67498 0.381284
1146 2 0.407907 0.685097 0.357948
865 1 0.944171 0.689021 0.382475
427 1 0.0762653 0.791002 0.37233
732 1 0.326282 0.814504 0.374759
234 1 0.860047 0.803377 0.359658
399 1 0.035571 0.841517 0.372148
22 1 0.213475 0.876324 0.382481
687 1 0.702856 0.899945 0.379304
482 1 0.702858 0.940642 0.375802
600 1 0.7789 0.968131 0.382721
797 1 0.753376 0.982292 0.385764
945 1 0.805496 0.967893 0.380496
847 1 0.901706 0.968904 0.368428
890 1 0.0503381 0.0329275 0.411915
646 1 0.699649 0.00305851 0.404384
207 1 0.830072 0.0223358 0.398219
619 1 0.964183 0.0313805 0.411417
300 1 0.230921 0.0965314 0.403272
445 1 0.169342 0.131755 0.408172
529 1 0.225747 0.134432 0.398729
520 1 0.263468 0.114264 0.428392
148 1 0.368188 0.141155 0.394729
823 1 0.808184 0.147285 0.411639
931 1 0.661106 0.201131 0.407845
413 1 0.574358 0.227013 0.406175
267 1 0.574002 0.258428 0.400492
63 1 0.750536 0.252835 0.39711
834 1 0.855791 0.278955 0.404521
367 1 0.060112 0.30222 0.407112
314 1 0.2088 0.297104 0.423583
1141 2 0.551365 0.299575 0.40906
65 1 0.00103428 0.383078 0.397405
1014 2 0.459175 0.362139 0.425066
919 1 0.0288831 0.438294 0.400452
1112 2 0.277055 0.460966 0.414731
1021 2 0.365892 0.555153 0.416787
277 1 0.211375 0.572465 0.415475
134 1 0.14569 0.618815 0.420152
1127 2 0.459577 0.609862 0.399277
331 1 0.752581 0.636188 0.415626
456 1 0.0481746 0.669745 0.410671
307 1 0.187461 0.660463 0.40442
530 1 0.798991 0.644221 0.42383
911 1 0.125228 0.714845 0.394901
436 1 0.592237 0.735135 0.415285
283 1 0.0951258 0.77958 0.3942
843 1 0.421358 0.7584 0.427016
143 1 0.146717 0.87466 0.407735
826 1 0.468429 0.885489 0.406978
1000 1 0.278808 0.926544 0.424208
763 1 0.41268 0.909407 0.400749
423 1 0.502642 0.90554 0.403496
145 1 0.698929 0.897864 0.408245
886 1 0.704226 0.927495 0.407971
472 1 0.22532 0.958434 0.40078
447 1 0.516745 0.931124 0.401684
792 1 0.0575944 0.989612 0.40469
293 1 0.59856 0.99098 0.400527
959 1 0.774913 0.97081 0.408833
515 1 0.198489 0.00859403 0.4398
49 1 0.450945 0.0307273 0.433862
688 1 0.955142 0.0632154 0.460885
329 1 0.77498 0.0829687 0.454679
120 1 0.040705 0.128842 0.451673
628 1 0.0379091 0.138719 0.443252
956 1 0.164404 0.135387 0.44241
727 1 0.569652 0.13515 0.459078
181 1 0.257581 0.165195 0.437538
759 1 0.648371 0.165851 0.449991
116 1 0.432689 0.201967 0.454746
461 1 0.687463 0.188877 0.45236
486 1 0.115681 0.244449 0.447456
678 1 0.220993 0.224635 0.437392
741 1 0.254847 0.219281 0.463886
341 1 0.678066 0.263131 0.438275
526 1 0.811404 0.266284 0.428986
302 1 0.938018 0.274853 0.452729
51 1 0.239869 0.482087 0.439974
891 1 0.0557223 0.525166 0.456565
282 1 0.174423 0.523916 0.458565
292 1 0.962253 0.584545 0.445511
668 1 0.253742 0.637618 0.448841
711 1 0.735922 0.635298 0.452805
949 1 0.910372 0.620422 0.433225
78 1 0.0409147 0.65279 0.445389
1144 2 0.53556 0.661954 0.43558
509 1 0.185737 0.687299 0.433478
876 1 0.059662 0.73841 0.448685
578 1 0.347816 0.742932 0.45069
1089 2 0.399698 0.720651 0.453996
164 1 0.810956 0.741504 0.449509
433 1 0.0979213 0.76334 0.462399
978 1 0.03313 0.81558 0.445172
707 1 0.418862 0.811831 0.446946
921 1 0.0826351 0.847829 0.460962
510 1 0.469439 0.864726 0.454514
542 1 0.0468798 0.90804 0.435396
994 1 0.0767484 0.910837 0.432915
895 1 0.300466 0.938625 0.463166
738 1 0.255071 0.974561 0.451544
309 1 0.394364 0.0807102 0.496131
660 1 0.189868 0.117063 0.483459
35 1 0.644682 0.176443 0.481366
46 1 0.757253 0.154488 0.484381
774 1 0.0106018 0.184772 0.47096
113 1 0.389909 0.198518 0.489133
548 1 0.403415 0.200182 0.466721
1068 2 0.473661 0.31588 0.493722
815 1 0.929094 0.286814 0.483362
701 1 0.175305 0.358509 0.469092
1087 2 0.637137 0.361753 0.482012
12 1 0.0231692 0.405158 0.495629
640 1 0.0155536 0.409084 0.474802
832 1 0.225586 0.42265 0.475902
760 1 0.991875 0.440798 0.48673
1118 2 0.263014 0.47135 0.469313
1028 2 0.350569 0.50589 0.47451
1105 2 0.675854 0.576902 0.491464
1022 2 0.722592 0.603468 0.48976
383 1 0.179724 0.62346 0.485352
993 1 0.217804 0.626614 0.495988
997 1 0.027885 0.663919 0.486058
1135 2 0.328176 0.646545 0.476742
1024 2 0.498999 0.667935 0.47537
1037 2 0.543296 0.674242 0.481046
764 1 0.917219 0.701938 0.477552
141 1 0.188658 0.773755 0.496143
881 1 0.488354 0.771493 0.489689
257 1 0.928947 0.811654 0.474021
943 1 0.165756 0.856338 0.478226
851 1 0.286776 0.836465 0.475427
927 1 0.499367 0.852769 0.481107
135 1 0.489371 0.864847 0.489715
14 1 0.583082 0.860443 0.464948
199 1 0.86237 0.858838 0.491562
106 1 0.225854 0.924049 0.487054
846 1 0.17225 0.00187442 0.503296
364 1 0.31237 0.00163664 0.507066
119 1 0.705898 0.0338262 0.516573
137 1 0.852562 0.00824223 0.527151
671 1 0.294463 0.0450714 0.514234
898 1 0.940801 0.0413224 0.505778
805 1 0.254304 0.0902913 0.526284
610 1 0.508721 0.0798781 0.511458
982 1 0.474037 0.132357 0.521649
793 1 0.625581 0.131701 0.501573
762 1 0.207839 0.147172 0.514691
713 1 0.249252 0.17359 0.528059
165 1 0.895472 0.20435 0.514103
460 1 0.195648 0.253318 0.507984
315 1 0.151978 0.298835 0.512632
171 1 0.730487 0.300739 0.522169
704 1 0.867157 0.302464 0.51389
950 1 0.215886 0.392248 0.517954
1038 2 0.388529 0.498899 0.507081
426 1 0.0705367 0.511007 0.502593
1017 2 0.615909 0.585382 0.535103
1082 2 0.699149 0.596687 0.530367
66 1 0.180679 0.680164 0.516111
297 1 0.291705 0.684923 0.508531
1080 2 0.547376 0.74347 0.50063
437 1 0.687972 0.746268 0.527604
933 1 0.314259 0.754062 0.519644
226 1 0.949471 0.756085 0.527441
451 1 0.800964 0.810347 0.501693
75 1 0.0855494 0.829388 0.522652
330 1 0.790077 0.827008 0.529765
816 1 0.862844 0.821652 0.509504
870 1 0.0109995 0.868061 0.507456
337 1 0.94335 0.885435 0.502468
902 1 0.568807 0.93839 0.515208
414 1 0.582315 0.96207 0.508594
129 1 0.801271 0.95505 0.524418
469 1 0.105966 0.965403 0.533979
27 1 0.276788 0.97998 0.529648
940 1 0.349793 0.96457 0.526085
625 1 0.415721 0.0223444 0.542897
954 1 0.440414 0.0298419 0.552577
562 1 0.615817 0.0353169 0.57073
295 1 0.806629 0.0199056 0.553533
941 1 0.91337 0.00925612 0.567677
833 1 0.973643 0.0140151 0.551488
690 1 0.351048 0.0670285 0.547314
653 1 0.567088 0.0463223 0.538828
611 1 0.0670604 0.083866 0.536695
856 1 0.697274 0.0858908 0.567392
396 1 0.108653 0.132359 0.551577
963 1 0.409718 0.125755 0.557304
352 1 0.108834 0.169843 0.550995
848 1 0.174342 0.157706 0.564577
633 1 0.219502 0.164906 0.569732
820 1 0.897254 0.152054 0.570424
151 1 0.0098288 0.192632 0.560366
976 1 0.583816 0.193048 0.554597
758 1 0.840376 0.202568 0.556702
485 1 0.665688 0.221965 0.562368
925 1 0.787186 0.242849 0.562343
808 1 0.13484 0.255403 0.556422
1032 2 0.524291 0.253378 0.546632
584 1 0.753334 0.285033 0.552681
527 1 0.966577 0.25344 0.566021
407 1 0.731502 0.353576 0.551065
379 1 0.892564 0.32228 0.560776
156 1 0.115272 0.379517 0.550435
1013 2 0.6178 0.363392 0.554318
1031 2 0.655166 0.370651 0.565273
878 1 0.843302 0.374104 0.566662
457 1 0.139132 0.394868 0.540178
1051 2 0.549469 0.425152 0.561821
675 1 0.85794 0.397188 0.536072
155 1 0.0482213 0.455795 0.53996
1148 2 0.735196 0.437379 0.559674
913 1 0.753999 0.458889 0.55203
298 1 0.883886 0.477216 0.566478
369 1 0.249988 0.54564 0.56816
365 1 0.260164 0.579733 0.565917
1094 2 0.281436 0.588001 0.551641
1108 2 0.398087 0.650891 0.544568
260 1 0.174017 0.69861 0.537365
194 1 0.340793 0.69998 0.559632
1143 2 0.602528 0.689923 0.558254
325 1 0.844749 0.694625 0.558694
273 1 0.21192 0.740321 0.569733
571 1 0.292541 0.738891 0.545456
695 1 0.193952 0.751089 0.560368
824 1 0.410232 0.771795 0.561075
609 1 0.701659 0.784407 0.536236
231 1 0.721298 0.857117 0.563861
114 1 0.859992 0.89353 0.565636
465 1 0.139823 0.0096144 0.589285
39 1 0.133816 0.0534659 0.601124
467 1 0.278221 0.0542992 0.605942
642 1 0.764208 0.0417436 0.584878
246 1 0.393115 0.0889869 0.603067
166 1 0.526512 0.0854156 0.580622
98 1 0.00322112 0.13736 0.604998
948 1 0.596306 0.11939 0.595223
992 1 0.877974 0.112012 0.57989
723 1 0.679312 0.198168 0.60314
180 1 0.741667 0.204712 0.589948
896 1 0.0160785 0.231547 0.603393
237 1 0.663607 0.247314 0.600883
620 1 0.688238 0.21435 0.582393
270 1 0.790459 0.236187 0.586769
1081 2 0.649899 0.347774 0.577848
1060 2 0.422078 0.368272 0.599737
259 1 0.921662 0.37238 0.598154
825 1 0.98134 0.386184 0.598528
745 1 0.844256 0.407008 0.591007
176 1 0.141814 0.471029 0.587895
197 1 0.84135 0.56724 0.599425
572 1 0.188767 0.60032 0.574366
1123 2 0.304551 0.585265 0.592209
1006 2 0.631765 0.573365 0.590711
1050 2 0.63126 0.584075 0.592348
686 1 0.929171 0.582649 0.589558
1049 2 0.55894 0.608588 0.572023
853 1 0.227148 0.671244 0.59127
449 1 0.25053 0.655416 0.580492
1139 2 0.332312 0.675079 0.590477
127 1 0.748956 0.711762 0.583061
663 1 0.329491 0.762693 0.57988
659 1 0.623596 0.775903 0.605414
706 1 0.00605845 0.824453 0.579605
537 1 0.888966 0.847181 0.575704
654 1 0.0769246 0.871458 0.599716
739 1 0.101676 0.865031 0.581475
209 1 0.411609 0.91876 0.593313
964 1 0.602541 0.908644 0.582808
110 1 0.889029 0.917688 0.577442
272 1 0.700598 0.952972 0.602024
23 1 0.224786 0.973261 0.601573
839 1 0.727615 0.0315128 0.635343
230 1 0.303091 0.055015 0.63731
405 1 0.45291 0.0629284 0.637095
692 1 0.726546 0.0572149 0.610346
972 1 0.256267 0.0860137 0.631887
170 1 0.959848 0.173596 0.62639
1020 2 0.466282 0.298094 0.634392
1055 2 0.548361 0.303359 0.611713
539 1 0.0647556 0.346797 0.625089
11 1 0.191191 0.349415 0.615162
374 1 0.236886 0.346381 0.632204
957 1 0.0628587 0.466153 0.628928
1030 2 0.616766 0.481887 0.637699
363 1 0.821828 0.467879 0.64124
421 1 0.852649 0.474661 0.630977
565 1 0.227855 0.560876 0.64211
1119 2 0.619894 0.564828 0.618263
1011 2 0.297888 0.601688 0.629681
546 1 0.769298 0.588601 0.611191
836 1 0.00194049 0.613889 0.639994
1140 2 0.319308 0.611297 0.621741
1104 2 0.354771 0.635691 0.610273
299 1 0.798694 0.642091 0.624991
1074 2 0.424536 0.670171 0.630045
38 1 0.888003 0.672494 0.612788
863 1 0.899664 0.650243 0.641269
238 1 0.0399059 0.698378 0.635716
487 1 0.386193 0.742823 0.630629
715 1 0.66792 0.726044 0.616217
434 1 0.464613 0.75276 0.63123
580 1 0.542854 0.754842 0.634479
616 1 0.0872139 0.803868 0.614138
899 1 0.615745 0.829751 0.621382
327 1 0.942217 0.837069 0.62604
438 1 0.445405 0.919356 0.610721
87 1 0.555239 0.907456 0.608489
788 1 0.78913 0.907218 0.621071
252 1 0.0953145 0.950237 0.640621
974 1 0.142795 0.958567 0.642354
18 1 0.344201 0.979807 0.611939
403 1 0.991253 0.987007 0.621578
90 1 0.746596 0.0457346 0.662153
333 1 0.119956 0.0992839 0.664933
498 1 0.420663 0.0904182 0.657874
278 1 0.888683 0.097796 0.658196
514 1 0.92462 0.091786 0.647897
730 1 0.366521 0.113682 0.66088
598 1 0.125612 0.161402 0.676381
80 1 0.108836 0.212152 0.644278
597 1 0.339158 0.226731 0.67425
812 1 0.504209 0.244403 0.675713
138 1 0.821637 0.249934 0.643502
140 1 0.0971806 0.314671 0.667352
725 1 0.314469 0.286705 0.651843
724 1 0.972588 0.287657 0.64362
203 1 0.283474 0.345551 0.673045
729 1 0.251404 0.341802 0.659925
1015 2 0.468723 0.334836 0.664176
942 1 0.941592 0.341266 0.666042
206 1 0.203569 0.386308 0.671436
1079 2 0.326314 0.364555 0.661401
1069 2 0.347709 0.436995 0.646384
1124 2 0.382099 0.445979 0.64892
612 1 0.236239 0.464488 0.650041
1093 2 0.403016 0.484862 0.657884
1085 2 0.72892 0.466715 0.646379
818 1 0.958557 0.468773 0.667759
1002 2 0.284733 0.514641 0.648235
1075 2 0.336443 0.599368 0.669072
280 1 0.996287 0.603715 0.644846
634 1 0.912754 0.655658 0.649289
48 1 0.163486 0.716883 0.660585
470 1 0.324431 0.71861 0.672615
790 1 0.356323 0.716407 0.652065
1025 2 0.523128 0.717712 0.656094
1128 2 0.577094 0.724524 0.651159
79 1 0.652688 0.723666 0.654674
946 1 0.988322 0.734139 0.670924
845 1 0.102445 0.78733 0.648847
218 1 0.181282 0.808394 0.672352
726 1 0.521201 0.819757 0.664281
492 1 0.924249 0.847721 0.643609
661 1 0.49562 0.892704 0.669846
809 1 0.780501 0.884729 0.642921
208 1 0.869273 0.875449 0.670816
903 1 0.108105 0.916621 0.649131
684 1 0.334501 0.951667 0.668413
617 1 0.814063 0.961246 0.665656
471 1 0.638542 0.980286 0.668247
794 1 0.938536 0.971718 0.662896
448 1 0.0980553 0.016106 0.693952
71 1 0.37211 0.0511508 0.692172
101 1 0.386686 0.0384773 0.687625
422 1 0.835251 0.0665025 0.708009
288 1 0.327548 0.100178 0.695608
742 1 0.97323 0.0841721 0.680052
799 1 0.0210707 0.135461 0.691068
121 1 0.266684 0.163365 0.681754
220 1 0.71971 0.169495 0.704729
844 1 0.866137 0.172232 0.707806
355 1 0.157449 0.244523 0.702993
294 1 0.66313 0.225246 0.710347
64 1 0.230931 0.263742 0.708115
1149 2 0.467827 0.264896 0.697467
1027 2 0.560293 0.340727 0.710192
473 1 0.911847 0.407371 0.682818
132 1 0.203277 0.479127 0.689044
4 1 0.0672042 0.50025 0.697247
840 1 0.203041 0.511494 0.68658
552 1 0.218153 0.500546 0.683661
1137 2 0.69617 0.527435 0.689546
488 1 0.980814 0.53946 0.702794
420 1 0.738005 0.653996 0.708963
736 1 0.152001 0.678687 0.699179
478 1 0.287243 0.685649 0.696223
811 1 0.726406 0.701298 0.710746
558 1 0.301586 0.748004 0.701695
96 1 0.396367 0.732118 0.706086
772 1 0.817738 0.723133 0.699242
791 1 0.25232 0.750264 0.678768
608 1 0.943522 0.772457 0.68791
153 1 0.587125 0.807502 0.680965
304 1 0.947331 0.799053 0.679712
785 1 0.61759 0.829874 0.695612
981 1 0.905625 0.83166 0.703783
92 1 0.0293265 0.890742 0.707691
522 1 0.389534 0.892288 0.680194
271 1 0.818639 0.860873 0.694455
3 1 0.481401 0.911685 0.692216
84 1 0.667692 0.892884 0.69603
860 1 0.721301 0.906509 0.698842
524 1 0.0395035 0.935604 0.701444
973 1 0.120542 0.943636 0.682522
636 1 0.184622 0.946612 0.702116
518 1 0.479679 0.956608 0.705102
382 1 0.701313 0.962677 0.70561
892 1 0.694231 0.936615 0.695294
676 1 0.768368 0.962855 0.708736
932 1 0.847025 0.955537 0.71127
162 1 0.918367 0.992545 0.711599
929 1 0.244664 0.069241 0.733798
15 1 0.402335 0.0384195 0.717085
857 1 0.162021 0.0825097 0.740172
168 1 0.768733 0.0958956 0.717961
866 1 0.251691 0.16902 0.720736
880 1 0.0811104 0.221737 0.729725
761 1 0.303517 0.215431 0.743522
937 1 0.622851 0.249643 0.744735
182 1 0.69633 0.214358 0.720701
269 1 0.18839 0.270704 0.730516
947 1 0.220996 0.271538 0.743357
102 1 0.909338 0.250594 0.729296
910 1 0.0652281 0.288614 0.727145
1064 2 0.554431 0.317613 0.748261
1132 2 0.654301 0.332368 0.717075
807 1 0.21993 0.362035 0.719708
497 1 0.933383 0.361797 0.727282
871 1 0.813316 0.405887 0.747481
814 1 0.869067 0.412014 0.727278
350 1 0.129258 0.441169 0.719141
679 1 0.25361 0.42915 0.721169
652 1 0.940707 0.464552 0.719139
326 1 0.974749 0.598425 0.736297
241 1 0.847006 0.631745 0.729899
55 1 0.0202146 0.747589 0.72595
368 1 0.386847 0.737534 0.730008
201 1 0.0201557 0.756097 0.729722
656 1 0.706656 0.770139 0.719948
632 1 0.968868 0.758598 0.749889
541 1 0.0497883 0.791558 0.723213
917 1 0.653348 0.819939 0.71993
361 1 0.39304 0.821546 0.715966
340 1 0.933351 0.825652 0.731105
517 1 0.826969 0.876106 0.716516
563 1 0.253461 0.910914 0.727843
157 1 0.155408 0.945006 0.717264
128 1 0.504907 0.966308 0.740215
306 1 0.557504 0.976184 0.719139
109 1 0.268878 0.0309256 0.767293
553 1 0.294821 0.0529994 0.760377
372 1 0.379547 0.0406237 0.761693
822 1 0.297384 0.134157 0.773595
227 1 0.381456 0.126421 0.757895
766 1 0.391393 0.136476 0.760348
728 1 0.71638 0.203176 0.770944
996 1 0.159055 0.230784 0.781045
266 1 0.440307 0.244647 0.783101
618 1 0.685859 0.223881 0.762478
802 1 0.613867 0.255892 0.774978
829 1 0.780166 0.252083 0.765256
535 1 0.309831 0.321221 0.754753
452 1 0.959023 0.293256 0.755295
1053 2 0.40622 0.334928 0.758089
1045 2 0.649987 0.332131 0.754722
935 1 0.942603 0.327884 0.753713