LAMMPS data file via write_data, version 2 Aug 2023, timestep = 35, units = lj

1150 atoms
2 atom types

-20 20 xlo xhi
-20 20 ylo yhi
-20 20 zlo zhi

Masses

1 1
2 1

Pair Coeffs # lj/cut

1 1 1
2 0.5 3

Atoms # atomic

970 1 4.4615226276144595 -19.88249050899815 -19.497244289569586 0 0 0
798 1 1.0774078870643002 -17.578440485124126 -19.353476868514647 0 0 0
21 1 -17.542383840160724 -16.64746982818602 -18.939151618905488 0 0 0
108 1 -15.96239985405822 -15.956265879773337 -19.016427953566378 0 0 0
351 1 0.08196435005523175 -16.852370246912148 -19.282496465162616 0 0 0
402 1 -5.270160783673711 -15.592291204068946 -19.6382667867645 0 0 0
332 1 -3.0091537642335298 -14.847315472945251 -18.831153790853524 0 0 0
83 1 -13.23098782134754 -13.212313388107491 -19.35111392259184 0 0 0
810 1 2.7361576737538718 -13.397977218682867 -19.803114402947536 0 0 0
232 1 12.498850334667996 -11.822425234980148 -19.500924311345873 0 0 0
93 1 -13.218901254100702 -10.316730336776644 -19.026303957021653 0 0 0
5 1 4.954595588050837 -10.63657294574843 -19.926717451904857 0 0 0
569 1 18.851017634780618 -10.946612242118741 -19.71195328967271 0 0 0
989 1 -19.37226166193948 -7.466267951533159 -18.58784741934225 0 0 0
17 1 -6.279720791810784 -8.125398167625129 -19.148891510018174 0 0 0
624 1 5.4304111388478855 -8.555368067434987 -19.025891121789208 0 0 0
328 1 14.498863780737429 -8.296139530160678 -18.778036471871747 0 0 0
804 1 -18.672358297739265 -6.82773287020854 -19.895656857651524 0 0 0
229 1 -16.33313624709306 -6.058109928855607 -18.81966975870882 0 0 0
370 1 -17.208290883625455 -6.341337555786933 -19.48251136421049 0 0 0
499 1 15.739908925409123 -6.8087531610704035 -19.67648861670978 0 0 0
734 1 -13.66835470947826 -4.0376022011216754 -19.980194251975135 0 0 0
1125 2 -2.022657867294114 -3.6758116802708884 -19.53250716891905 0 0 0
961 1 11.06005542412723 -3.6792406735326946 -19.02650372910914 0 0 0
1066 2 -4.042133302717333 -2.1473381216575405 -19.936365332028103 0 0 0
657 1 -13.500747157504826 1.954449085319515 -19.584205599533735 0 0 0
286 1 -11.959846592013026 1.8464027681521347 -19.498693102511655 0 0 0
455 1 14.903428868811313 1.928998111714142 -19.328736420408234 0 0 0
41 1 -15.981100751294878 5.571257187393152 -19.358477279831774 0 0 0
1102 2 -7.9136014239158206 4.759771644824769 -18.89329295035866 0 0 0
1097 2 -5.4567721775106595 4.585361217134962 -19.38531237374518 0 0 0
1016 2 6.042919425683273 4.9161067064161 -19.543106176118226 0 0 0
40 1 -16.591632423482416 6.468889038201543 -19.023993124038004 0 0 0
1041 2 5.138497673863902 7.293425768267321 -19.109504877288607 0 0 0
172 1 -16.203360541385933 8.152766218967463 -19.338073840162835 0 0 0
969 1 -6.098575521240412 8.536604751059235 -19.739868636446158 0 0 0
664 1 -18.296522609096264 10.344508919093993 -19.83859678722853 0 0 0
613 1 -10.313921342750042 13.923992400022218 -19.459732826547572 0 0 0
593 1 -9.525944622944083 17.448722178791055 -19.326341058745207 0 0 0
313 1 6.2508633482506815 18.260294049168145 -19.237915631028784 0 0 0
178 1 17.181999477176927 17.865212912608502 -19.36657778889247 0 0 0
68 1 -14.666558129092007 19.15752435063828 -19.488238822430482 0 0 0
813 1 8.3191841786351 -19.471509679905843 -17.66319017748497 0 0 0
431 1 -8.47133993565633 -17.810298575931366 -17.68816567849748 0 0 0
967 1 -17.683859859453513 -15.816090819867396 -18.148206842753 0 0 0
34 1 -16.743687286980002 -16.793166888983333 -18.179702583325014 0 0 0
30 1 2.1719611353110357 -15.84919882744979 -17.484692948630403 0 0 0
62 1 6.006098401735582 -15.504162030063645 -18.451239279681463 0 0 0
366 1 -5.502650833996309 -12.453039256922127 -17.35500886156869 0 0 0
511 1 -19.228319637118055 -10.368141043171352 -17.346512580917455 0 0 0
233 1 7.9654137193048475 -10.577824833208453 -17.372602752865486 0 0 0
43 1 -5.337860461882461 -8.562732654727998 -18.26583977896938 0 0 0
1099 2 -2.301654149340854 -7.825820727107152 -17.26592975015539 0 0 0
54 1 12.109496022391255 -5.865818129779773 -17.17792604995979 0 0 0
1059 2 -0.22985044009427374 -3.702920213535639 -17.603230922048844 0 0 0
800 1 11.199983821245953 -3.7628410513405357 -17.886447621835835 0 0 0
308 1 -16.681281475667507 -2.2977615437925625 -18.47826652157971 0 0 0
1147 2 -3.648417994737076 -2.264175396720092 -17.4176968310149 0 0 0
1078 2 -0.7917035593005286 -1.039365875904327 -17.76010027033532 0 0 0
751 1 16.57634712596254 -1.3338539476198386 -18.083297646643267 0 0 0
874 1 11.902818825064493 2.1383998422805943 -17.36520758432789 0 0 0
975 1 -18.226361857079485 3.7803491480504707 -18.277851616247577 0 0 0
91 1 12.336290463602491 4.025584319529609 -17.670381449906706 0 0 0
606 1 19.67616053859652 2.9860911088051862 -18.16075141074907 0 0 0
1133 2 8.05930251700716 4.7424497596529225 -17.942582032766655 0 0 0
806 1 -9.53849169869837 6.5700199765013645 -17.674254941602356 0 0 0
841 1 -5.916004546878861 9.711580606974465 -17.46473858014901 0 0 0
94 1 -17.76371248034066 12.537169813843136 -17.669551170873003 0 0 0
952 1 6.022032666041309 12.030252202465746 -17.86539498647897 0 0 0
240 1 -6.915395048873217 12.955413587836278 -18.363829235715713 0 0 0
644 1 5.3390438730435115 13.583140196046894 -17.848563211592467 0 0 0
714 1 -16.411315592197383 15.018841938590093 -18.323538116330067 0 0 0
705 1 17.67919957529716 14.307262019397346 -17.84723998878488 0 0 0
349 1 -6.73653024562473 19.13616178517051 -18.528876639217547 0 0 0
320 1 14.075418851096286 -19.58045486367905 -16.273094739029197 0 0 0
10 1 15.77559462284296 -19.894622864272254 -16.473813020698184 0 0 0
192 1 -19.699812699459674 -16.127845017441235 -16.362478264762753 0 0 0
442 1 -19.110450663676122 -17.07328302744359 -16.23047025529265 0 0 0
7 1 -16.285521727583568 -15.78143753356455 -16.245458022980266 0 0 0
466 1 -15.375051684505863 -16.947344882854786 -16.897482065498895 0 0 0
425 1 -10.341459543878637 -13.22208020364219 -16.581481294852775 0 0 0
112 1 9.6068812840666 -11.860053502821549 -16.048590903376592 0 0 0
310 1 15.947378890564377 -12.402986284533045 -16.990484146862517 0 0 0
450 1 -6.650228296666784 -11.353349828989787 -16.484742360827557 0 0 0
265 1 14.400791536365226 -7.738883413202271 -16.890462122862424 0 0 0
579 1 10.053973182130727 -6.594026667290529 -16.62506170578725 0 0 0
301 1 11.50767510068165 -6.4672749342029014 -16.088801093704557 0 0 0
521 1 19.465004345042786 -6.252937028217807 -16.68257008085847 0 0 0
667 1 -9.823969412888696 -4.549573588648853 -16.508113969809187 0 0 0
1126 2 -7.922735342344299 -4.317247612341648 -16.31203270672567 0 0 0
1092 2 -2.129101281579613 -5.302814609881984 -16.52356927362817 0 0 0
1086 2 3.864723990608343 -5.58388984556491 -16.873268818889404 0 0 0
262 1 19.322695359272274 -3.459096710877072 -17.03841971095578 0 0 0
85 1 -13.263795203085792 -2.328500105002935 -15.73439983342858 0 0 0
864 1 12.563799895608705 -0.2151545045036607 -16.10175719303161 0 0 0
398 1 -15.65295561945669 0.7749037913861256 -16.191978173419823 0 0 0
258 1 15.167880723381156 3.5848853013206603 -16.969537298090515 0 0 0
167 1 10.78496518720614 4.672970529860715 -16.458278560320945 0 0 0
582 1 13.651052219001057 4.744362818211084 -17.105949056872436 0 0 0
987 1 13.6284821015749 5.788963144700433 -16.35471463714441 0 0 0
722 1 -19.943581167582227 8.231316445503065 -16.264500429976966 0 0 0
359 1 -10.430776453777579 9.940141360247573 -16.044158319031894 0 0 0
504 1 6.230834073619361 8.976116629881963 -16.329893170965075 0 0 0
887 1 10.458076573190315 8.89296560962357 -15.926999056677799 0 0 0
371 1 -14.71700416631857 11.310976683772624 -16.41487583351083 0 0 0
930 1 18.03837979121058 11.049150876258103 -16.921222730037393 0 0 0
545 1 -1.2773193331795363 12.093967251523381 -16.69240364650842 0 0 0
213 1 1.9899182422713488 12.564316951061798 -16.423413208092228 0 0 0
216 1 -9.16680234911237 13.552918468393816 -16.099301705183137 0 0 0
710 1 -19.191308338259883 15.131481305462462 -16.147667969260894 0 0 0
867 1 -18.99060537875695 14.191849893394323 -16.742260412447774 0 0 0
756 1 -14.167658785469067 19.407063760707953 -16.942073436740362 0 0 0
505 1 -12.372445680128802 18.78611960535224 -16.181033974984157 0 0 0
986 1 -0.5362877234645793 19.926532015381987 -16.059712040979136 0 0 0
720 1 12.602012275508555 18.93007134550749 -16.419806232346016 0 0 0
435 1 -16.575229129090545 -19.875972624810398 -15.471905188389078 0 0 0
387 1 4.740465434116921 -19.73313245092079 -15.329866403485589 0 0 0
567 1 10.875273342651909 -19.280930049382583 -14.59133997307687 0 0 0
894 1 -11.422937807240832 -18.111330055172882 -14.682917894401704 0 0 0
939 1 17.548744118562315 -18.257599323176592 -15.471824628986337 0 0 0
419 1 -18.35455863282886 -15.96215813309836 -14.757844843168751 0 0 0
346 1 -9.432767736461372 -16.527346706263415 -15.116092169245748 0 0 0
212 1 5.223212831291937 -13.461944476450768 -14.900815708050883 0 0 0
883 1 -11.005958800397117 -12.838032038972713 -15.724980333816395 0 0 0
559 1 -4.561638728969715 -12.46739304811266 -15.465392696168836 0 0 0
312 1 15.271544677797495 -11.148600257536676 -14.524528418911867 0 0 0
296 1 -10.962130731488063 -9.533231624819116 -14.535727781618542 0 0 0
1048 2 1.376848456186656 -7.843786428013496 -15.662374065563059 0 0 0
1129 2 3.4095282555914403 -8.869254872624818 -14.554258773043259 0 0 0
45 1 9.52313147077029 -7.777886229087552 -15.185042088432892 0 0 0
95 1 -17.69532703649727 -5.782011165930188 -14.454954942413382 0 0 0
1101 2 -2.19824884134547 -6.881057105368893 -14.316195681229374 0 0 0
1103 2 2.505659971190879 -6.026428039777106 -14.305775885468124 0 0 0
672 1 8.512911822350317 -6.773393942858199 -15.155891239067852 0 0 0
377 1 15.721707584206811 -5.26063223614387 -15.445992869998324 0 0 0
771 1 18.25905638676869 -5.458343416284687 -14.807860672582331 0 0 0
587 1 12.99734422834198 -3.5699591402345874 -15.698099280431435 0 0 0
991 1 12.306049236800435 -2.296072211202288 -14.690824319134396 0 0 0
378 1 -18.817223551747272 4.718568281922365 -14.704168597732979 0 0 0
1007 2 -7.7036135912424015 5.366371988955128 -14.771963262358662 0 0 0
290 1 -16.71696934066586 5.836875822905605 -15.306063942715136 0 0 0
1009 2 4.275379289876392 8.951883643267498 -15.53498439194193 0 0 0
202 1 -2.817180539861872 11.646666541531063 -14.475436487456522 0 0 0
334 1 1.824255398325412 12.252060558703702 -14.719780163102746 0 0 0
463 1 -6.972973719207114 15.046467043718271 -15.405323293764521 0 0 0
475 1 -2.766144902257935 16.330226163195096 -14.599690264421323 0 0 0
700 1 -0.554370124695378 15.773715832503834 -14.447188023634855 0 0 0
184 1 -0.9631867728830066 18.405607870757038 -15.66522162041325 0 0 0
19 1 14.279678491759148 18.075381488270114 -14.881109953031427 0 0 0
709 1 16.314155434003546 18.436686640181836 -14.892400630404135 0 0 0
356 1 -11.819089009555054 18.84207973878617 -15.209889435538559 0 0 0
744 1 -12.057317867487024 -17.868661052869673 -13.178553569315723 0 0 0
599 1 17.60599898062926 -15.975132564071162 -14.053004344018644 0 0 0
494 1 13.312433095832175 -15.053339884374047 -13.435093158275789 0 0 0
344 1 -15.579072284571573 -14.259518421372247 -13.954520106536505 0 0 0
583 1 -8.67939961856754 -12.884856918417118 -12.866125220250586 0 0 0
983 1 -5.923775933013477 -13.688966530750502 -13.833432252894177 0 0 0
476 1 -17.93519226723236 -11.463525982503226 -13.293777268193342 0 0 0
205 1 -16.657839325790764 -12.667991147118165 -13.6892839621065 0 0 0
525 1 -13.114248204247938 -12.362409934667248 -13.477495850515345 0 0 0
376 1 -2.538445670597569 -12.796670111076228 -12.986877565241391 0 0 0
124 1 -0.9100084764466386 -11.711516800265397 -13.3283209962805 0 0 0
551 1 -17.01949652484599 -10.836928269678006 -13.450352691515297 0 0 0
391 1 -14.416151909667342 -11.072304639436329 -13.770351108293186 0 0 0
254 1 -4.699597218655415 -10.08077004469848 -12.93672488714497 0 0 0
662 1 -15.617754792616589 -7.604799507001787 -13.865314179037378 0 0 0
1117 2 -6.480147111421101 -4.582309971965907 -13.55775449853998 0 0 0
561 1 -9.867813978356407 -3.0457641707508936 -12.972558218271779 0 0 0
1136 2 2.15843078315185 -3.2538275668648198 -14.15983259405933 0 0 0
464 1 -13.89130845724736 -2.1429729880083914 -13.412959449779185 0 0 0
1054 2 4.866897535914041 -2.0531138926991788 -13.37038919020928 0 0 0
549 1 -13.084672387733065 -1.2856339234770002 -12.969450665350553 0 0 0
386 1 -11.32615556536529 1.3034129055698473 -13.539296087594375 0 0 0
767 1 -13.206185062046249 3.6476621886937233 -13.741594624585284 0 0 0
1088 2 -6.447134584396674 3.009040045090503 -14.127924327798153 0 0 0
1130 2 -0.6101610933477808 5.022504103846151 -13.54705331546583 0 0 0
133 1 10.39326446243605 5.511993698128195 -14.243525433344951 0 0 0
623 1 16.975495550210887 4.837335921837966 -13.588445028144664 0 0 0
152 1 -16.87516767567041 5.7345098984497795 -13.009793067732186 0 0 0
655 1 11.653080623158292 5.779053717017486 -13.724278763133306 0 0 0
1150 2 -3.2802732630075293 8.44726863244887 -13.512188863713382 0 0 0
489 1 14.318246457849673 8.051422424384743 -13.048950199049886 0 0 0
908 1 -6.718045634551926 9.807020085773907 -13.41341839796557 0 0 0
960 1 -9.94482913398803 12.346593150867372 -13.02901686219437 0 0 0
25 1 12.591313057545712 12.602987471819523 -13.118994795511695 0 0 0
221 1 -12.232089094925714 15.2785815835365 -12.879325502030238 0 0 0
411 1 -8.075235131789476 14.350115686198519 -13.286789062565482 0 0 0
392 1 -7.033263482293546 14.940801724308018 -13.967734074640614 0 0 0
440 1 -6.606395771132998 16.63978676317544 -13.207482845464408 0 0 0
776 1 1.9097883728844067 17.81318306821081 -13.832172580916515 0 0 0
683 1 9.917837151423816 17.65154492831855 -13.020399145807257 0 0 0
502 1 5.136330428627081 19.04119758935581 -14.019351919106834 0 0 0
533 1 -16.629920916925148 -19.08085076095576 -11.858739383452917 0 0 0
842 1 -9.861316564428302 -19.1474983464682 -12.004709091039704 0 0 0
859 1 -5.706905857926296 -18.659802892387702 -11.675264141363554 0 0 0
564 1 14.107311570135558 -18.41444073171096 -11.505377866097437 0 0 0
97 1 -12.56264916793706 -17.121699561083183 -12.253604532481772 0 0 0
210 1 12.549520936153673 -14.840533077860318 -11.92564009551896 0 0 0
837 1 0.6941655560835125 -13.15949890444032 -11.698086928435641 0 0 0
906 1 -8.49475918730204 -11.946284306498708 -12.215997807159217 0 0 0
139 1 -6.433503534725007 -11.888036216331162 -11.994215914988017 0 0 0
146 1 -5.2337921887065635 -12.04122561756826 -12.734279906886536 0 0 0
453 1 -10.185048086110106 -10.43850578748594 -12.808652518078107 0 0 0
698 1 9.252181827257704 -11.024211351498804 -12.326032085614266 0 0 0
163 1 13.786451031354465 -11.117516025489902 -12.091840408785194 0 0 0
253 1 17.00133944044501 -10.6168347644078 -11.563609221678856 0 0 0
1110 2 -3.555201756669762 -8.624802945880274 -12.896342316494106 0 0 0
1004 2 -0.48867214126743985 -9.871119304267832 -11.961976776258286 0 0 0
543 1 7.730006852477563 -9.330648337917028 -11.800767926288223 0 0 0
803 1 -17.650182143997082 -6.19078540270417 -12.336974095265573 0 0 0
1065 2 -7.141047760476332 -6.839902008212213 -12.675747208772439 0 0 0
321 1 -10.481330966727311 -5.033327851317483 -12.327056684919148 0 0 0
928 1 18.948941993969 -5.131907363017978 -11.967050243153727 0 0 0
685 1 -19.63485803438111 -3.0589838433354077 -12.341454938213086 0 0 0
73 1 -15.255921501552116 -3.8517243881228187 -11.753025177490509 0 0 0
28 1 12.082808386573012 -4.239446867368857 -12.383499868392711 0 0 0
560 1 -13.408762516895713 -2.1986121647618 -12.397516252742857 0 0 0
322 1 -15.259536476667678 -0.7964756174752646 -12.36318968146421 0 0 0
32 1 -11.834170619378884 -0.8379539421850283 -11.9081913704186 0 0 0
1056 2 -1.1054961714453515 -0.07415348201717853 -12.595144525447463 0 0 0
1044 2 2.5763084611745124 0.016306960031533535 -11.857845500045384 0 0 0
491 1 17.9818283208392 2.6650095272793823 -12.55325466496133 0 0 0
37 1 -17.79912361479068 4.138440069935143 -12.79853115791314 0 0 0
614 1 -19.729567448095803 4.3465960009892735 -11.558338306046855 0 0 0
1122 2 6.543957887470702 4.300214720098401 -12.582398612323402 0 0 0
336 1 18.70971296497904 4.423568115283269 -12.53317603302526 0 0 0
481 1 -10.683220788223306 7.108212330894643 -12.2753546537251 0 0 0
737 1 -15.70953883030896 9.780878997305816 -12.766692281126367 0 0 0
557 1 11.853177894509926 9.830288279546743 -11.448329568572012 0 0 0
775 1 12.49581737942655 9.553744518054225 -12.606177789430703 0 0 0
681 1 -12.296823489406819 11.111494215343082 -12.396655469586143 0 0 0
757 1 4.006085034462661 10.271174213975286 -12.374985717411612 0 0 0
716 1 10.605279403086204 12.406154676776188 -12.787069195092977 0 0 0
641 1 19.687715675536413 11.437358740455172 -12.311649169917986 0 0 0
531 1 -7.788413254002895 12.987755559318211 -12.40976215301736 0 0 0
733 1 6.269649726464248 14.00295268464971 -12.37422909232519 0 0 0
424 1 2.266577585724452 14.36948327085445 -12.09466674928305 0 0 0
77 1 -18.291282336363235 18.417772743114163 -12.493506480238171 0 0 0
770 1 7.741230368357859 18.296260042323915 -12.221459266351353 0 0 0
107 1 16.910526957219588 17.83006950637249 -12.674816663498891 0 0 0
635 1 -2.7739179799211766 18.760511464793474 -12.083811216095375 0 0 0
885 1 -3.672379273365788 -18.985398733680835 -11.228465192599565 0 0 0
884 1 3.3713510555081783 -17.702810074064327 -11.128914799135604 0 0 0
375 1 16.995255838810234 -15.924481939463396 -11.297048340310374 0 0 0
338 1 19.518537229881105 -16.43538843349915 -10.933093793802945 0 0 0
547 1 -8.40454184841576 -15.134846323698222 -11.362162396014742 0 0 0
868 1 15.23627010560976 -15.724149395169922 -10.368849932513857 0 0 0
918 1 14.581440374100575 -14.988290521504153 -10.923728245421474 0 0 0
125 1 17.505896770286306 -14.475856018303883 -10.830252236969182 0 0 0
211 1 4.740186028527185 -11.693418543643046 -11.285463008696894 0 0 0
24 1 18.468262419577904 -11.784703830405071 -11.095553798247973 0 0 0
193 1 -10.750327455787744 -9.828093904415663 -10.97612737988046 0 0 0
1131 2 -2.6036632006352183 -9.365440541123775 -10.69503164491752 0 0 0
160 1 -13.85923777214171 -7.229420966692511 -10.030339289700521 0 0 0
666 1 10.800087019242387 -2.9374675932049144 -10.017838994980714 0 0 0
215 1 15.94073040221852 -4.144129913367392 -10.391453965749339 0 0 0
1058 2 -8.86866029975601 -2.4745473713612958 -10.7184596796659 0 0 0
1034 2 6.523307727893492 -2.7670172940786077 -10.519323158319725 0 0 0
784 1 -16.539563939238484 -0.2962235443133398 -10.879889794194009 0 0 0
118 1 -10.047109401051395 -0.35439316460729314 -11.237063682819691 0 0 0
1134 2 9.68175754867576 1.2991205934896688 -11.360370438248092 0 0 0
446 1 -14.224938095652004 1.4654263767718456 -10.578885595583769 0 0 0
1072 2 -5.171529294537161 2.1071467139325795 -10.370357870296742 0 0 0
429 1 -18.21406479534097 3.5397300585466214 -10.753464653748438 0 0 0
462 1 12.323607687057745 2.874396379512918 -10.020049526365497 0 0 0
1035 2 1.0108247886280546 5.383887034026596 -11.2174733069125 0 0 0
115 1 9.762943829299392 5.796939034851705 -10.845641247390603 0 0 0
879 1 15.198603810333333 9.078453169092317 -11.266091735985404 0 0 0
53 1 -18.617673403871095 12.76310113852988 -10.559164728298395 0 0 0
926 1 -16.07206234382147 12.746039385564071 -10.97610736571401 0 0 0
658 1 -11.477251667478729 12.091778078443486 -11.184371633097784 0 0 0
183 1 12.609528141056808 11.824245285208999 -11.019251033291484 0 0 0
528 1 -15.187161154237595 13.484628735560857 -10.184780887606413 0 0 0
916 1 -16.826147615083364 15.410576286867753 -10.05876753515809 0 0 0
88 1 14.935182051237291 15.604735145161271 -11.216415274523392 0 0 0
335 1 15.825423167937167 17.88718351995907 -10.106580047917822 0 0 0
345 1 -19.319292958508846 -19.356753658203758 -8.958733430578716 0 0 0
188 1 18.706475115274003 -17.41138720201654 -9.429941349731312 0 0 0
279 1 -8.129231802209985 -17.092316045966584 -9.81849991296536 0 0 0
400 1 -7.369212389293004 -16.680717129517436 -9.089425865498367 0 0 0
988 1 -15.138784038782894 -15.157990753892395 -9.322160802760179 0 0 0
319 1 4.934006011370728 -14.372537565692301 -8.964060503886554 0 0 0
480 1 -16.003248159214966 -11.29997066036447 -9.50387134373207 0 0 0
740 1 13.833266642884935 -11.192432794629424 -9.439360252326969 0 0 0
747 1 -15.081676567642 -9.16849424103622 -9.676179481420784 0 0 0
592 1 -17.579439812533554 -7.155339106992322 -8.984248493338207 0 0 0
1107 2 3.3517227090672397 -7.852077154934959 -8.924580272873051 0 0 0
439 1 -10.374648752796766 -6.721588255242253 -9.733805856543503 0 0 0
689 1 -15.907479703052072 -4.973776116158848 -9.699297629188056 0 0 0
778 1 -16.169342413287623 -4.890221824529864 -8.600496697026148 0 0 0
955 1 -13.8124089080382 -5.609140988175255 -8.975783868650856 0 0 0
1042 2 8.374791433277908 -4.880380898192702 -9.123511849494424 0 0 0
1090 2 -3.6843517020737524 -2.8990567535623244 -8.893714243962297 0 0 0
594 1 -17.814174330706788 -2.8279761890079724 -9.7958086569774 0 0 0
1043 2 -9.43182722638912 -0.7201939219237274 -8.59849154418264 0 0 0
1040 2 -1.0876655071450703 -0.3941785871955461 -9.919029991104747 0 0 0
274 1 15.27451699379576 -1.1928852746230012 -8.822810588787686 0 0 0
639 1 18.616216498714042 2.7506938868903985 -9.08784303306036 0 0 0
412 1 -18.725074889265706 3.030326769904533 -8.879055290348665 0 0 0
627 1 -14.129592959829417 3.931124146995657 -9.59646144397392 0 0 0
936 1 -19.436454055953906 5.179383359941455 -9.38700894608946 0 0 0
31 1 14.765612368828439 5.647082899532787 -9.477707552480375 0 0 0
1111 2 -7.777352713876103 6.032937884346088 -8.825955590617822 0 0 0
1052 2 0.41567931694104043 6.781450910310157 -9.192361631666166 0 0 0
58 1 -11.323304470313388 9.221767442869844 -9.754587686506373 0 0 0
1039 2 0.07117281708089238 9.26562142183062 -8.877038776675638 0 0 0
677 1 9.130105520193514 9.683477892393002 -9.78706255079576 0 0 0
777 1 -1.3182324299717192 10.129232895628316 -9.854156936620955 0 0 0
495 1 19.173629581543445 11.192377000671057 -9.719749721567961 0 0 0
586 1 -10.616271193426229 12.330052085374508 -8.81460111067379 0 0 0
390 1 -0.9089444000178589 11.916049508869994 -9.214485569509371 0 0 0
417 1 9.175498327060795 12.318916408439572 -9.988955173625985 0 0 0
100 1 12.700025199229957 12.711206617347955 -9.454589111616205 0 0 0
81 1 15.313480121695196 13.66040533113312 -9.567599645614438 0 0 0
136 1 5.274876423773764 14.848054365649844 -8.750276523060293 0 0 0
444 1 -17.835932925688375 16.674867303941653 -8.750063819399012 0 0 0
602 1 -14.697534681622654 18.534605968061186 -8.877494795656528 0 0 0
882 1 -11.815409600648755 18.410841896390004 -8.980247373217832 0 0 0
591 1 -5.163352948223872 19.526999201405324 -9.724421980662468 0 0 0
626 1 -0.9270055689509049 19.817402642135228 -8.913793633186163 0 0 0
458 1 10.929562444121972 18.89671691143685 -9.647943916419544 0 0 0
670 1 9.99729087221436 18.726970753366118 -9.033473740028853 0 0 0
540 1 14.762514050289862 -18.60847084533143 -7.678879558148532 0 0 0
838 1 -9.746495790105161 -17.933237712826966 -8.386894064231917 0 0 0
631 1 -2.602372459416451 -18.07392541229442 -8.464404432319292 0 0 0
852 1 10.482859287791866 -17.292895203934815 -7.804762453673466 0 0 0
217 1 19.036593137848286 -17.89794676290119 -7.1646942225839485 0 0 0
214 1 9.330720712894395 -15.868033262031757 -7.919965046428426 0 0 0
696 1 -15.74775560619164 -14.913822333120136 -7.640392616860812 0 0 0
243 1 3.125263573372231 -13.483551659279572 -8.327543598372767 0 0 0
650 1 -4.853913746423834 -12.287507623728295 -7.169252136712994 0 0 0
914 1 19.048450476978186 -12.692833427662418 -8.45141872225861 0 0 0
915 1 -11.591441974126463 -11.305004989029433 -7.597941357034279 0 0 0
131 1 -13.547895463945514 -9.89138020375971 -8.17049920930276 0 0 0
105 1 2.6459225852254242 -9.723461668248444 -7.620895418937878 0 0 0
409 1 13.504097495841847 -9.72848762437482 -8.470121951986178 0 0 0
872 1 16.599705754012692 -9.858174610874359 -7.396692660294663 0 0 0
590 1 -19.130642536063796 -7.527144928885841 -8.100611581986616 0 0 0
395 1 -13.811369226486354 -7.2121033354726265 -7.885981065366985 0 0 0
200 1 10.587992831407114 -7.604482540676596 -8.538061151531553 0 0 0
318 1 18.890743651165778 -7.318838855856074 -7.737116744575828 0 0 0
56 1 -18.182096296207643 -6.345141756687582 -8.46948730680339 0 0 0
645 1 -19.821183855279198 -4.825892209164339 -7.618099568394643 0 0 0
67 1 -8.875174219196278 -5.053102031840524 -7.485849143697809 0 0 0
923 1 11.487749401241425 -5.395813335383224 -7.4347277858456255 0 0 0
536 1 -14.385284243228748 -2.078418562814872 -7.01161238461914 0 0 0
721 1 -15.43209150604402 -2.218771179829637 -7.4117238427280245 0 0 0
1120 2 -7.1304412359047875 -1.3258518517603413 -7.184145072095163 0 0 0
384 1 18.5327342145763 -0.33605561607333634 -8.086739344562748 0 0 0
354 1 -12.4203058020823 0.7313814692967254 -7.2726469846844175 0 0 0
1033 2 1.1959463968854145 0.2710924531664194 -7.498279263963122 0 0 0
1047 2 -6.699455937696367 2.244055137151877 -8.330619776775418 0 0 0
786 1 -13.729428478390645 9.495563688453084 -8.061088169022039 0 0 0
861 1 -2.4933659709028806 9.816942608120879 -7.739957701448918 0 0 0
523 1 -18.94626600618766 10.107234004003569 -7.718094711992003 0 0 0
381 1 9.19933486672138 13.502571488553018 -8.263960071972624 0 0 0
490 1 -7.921945782341968 15.857236178525369 -7.431547524142799 0 0 0
905 1 -1.5317077476213248 16.58788572837966 -7.404563123083003 0 0 0
752 1 7.212389329081583 18.62745387415749 -8.382737035110004 0 0 0
979 1 -19.481562932579234 -19.080132623168286 -5.8106184159545675 0 0 0
223 1 7.454389864449988 -19.239692617063525 -6.83294783292738 0 0 0
484 1 7.6087533109330625 -19.70450307212503 -5.8265743547368265 0 0 0
479 1 16.26755536750999 -19.014824192500352 -7.040821280625771 0 0 0
275 1 -4.977565754660203 -17.947638574031945 -5.961513754893799 0 0 0
718 1 18.09631835580632 -15.177393963177407 -6.460339122666204 0 0 0
358 1 -17.948171308276187 -14.0846007047368 -6.1240241396367106 0 0 0
697 1 9.740381161561412 -13.413817637327043 -6.033030555598917 0 0 0
316 1 12.117951732183784 -13.585237187140265 -7.081404266451208 0 0 0
801 1 14.42659690716611 -12.185781259176219 -6.425622974720609 0 0 0
977 1 -15.559325374145091 -10.808705315232592 -6.7428702166754775 0 0 0
57 1 -6.121435580648366 -10.408632478706673 -6.857449487804662 0 0 0
250 1 -14.22266243471861 -9.488152134334479 -6.14468299847629 0 0 0
430 1 -9.836743519762258 -8.944020275982682 -6.58142712347175 0 0 0
1067 2 3.1256509726520876 -7.184102636382032 -6.426019345608549 0 0 0
142 1 6.838009481755727 -7.724833269119815 -6.559308288550127 0 0 0
554 1 6.403132037400156 -8.409654277923186 -5.772894863262746 0 0 0
532 1 16.966778752625547 -6.397926440165841 -6.574694479518473 0 0 0
649 1 -18.972475763669678 -3.9027808194653453 -6.220982988981484 0 0 0
922 1 -12.788417627365234 -3.30560758914207 -6.10906600147736 0 0 0
1109 2 0.9947954680653096 -4.594614096803123 -6.229534161900364 0 0 0
251 1 -11.722004567743767 -0.5417671359960538 -5.879253230926397 0 0 0
534 1 10.167182306836908 -0.16696899205770777 -6.247849513892014 0 0 0
175 1 -14.83659796133748 0.0839580541934656 -6.657892529800911 0 0 0
1010 2 5.772838301850873 4.09333920762564 -6.495874871730747 0 0 0
869 1 15.085378234333342 4.039660611226407 -6.338238321680959 0 0 0
819 1 -19.036778503173306 5.671498009269581 -6.428166336390749 0 0 0
835 1 11.486081719159188 6.575453908450646 -6.346160669972263 0 0 0
596 1 9.891634765030645 8.705495870069363 -6.730911744167523 0 0 0
9 1 14.839365940011838 8.993135716073711 -6.952169655233545 0 0 0
410 1 14.452328427404586 9.977637081179704 -6.551165376059866 0 0 0
821 1 -15.411076930711284 11.107343091120896 -6.376093070849881 0 0 0
966 1 3.8490036799800587 10.204849424867355 -7.095716254364568 0 0 0
717 1 12.842460640276135 10.040348727312319 -5.8555538752157235 0 0 0
995 1 -19.803195965392003 13.993238560849694 -6.498221067839505 0 0 0
519 1 6.3029996428186985 14.514996853896882 -6.447876555122378 0 0 0
827 1 -17.06089816396689 16.29978329096667 -6.415001191815232 0 0 0
477 1 -15.566542834514333 16.626262893726746 -6.667510577787905 0 0 0
173 1 10.455805385517703 19.1110582377024 -5.92793034586563 0 0 0
36 1 -7.112505653459815 -19.882517699097523 -5.474968732090186 0 0 0
516 1 -9.366214046890946 -17.95948609614721 -5.082817946133584 0 0 0
647 1 -0.8863632664486598 -17.107419202619894 -4.394538432543418 0 0 0
248 1 -13.307957448746008 -15.64987756135978 -4.469717191857732 0 0 0
501 1 -3.748396062017295 -14.886469120772233 -5.415337351964477 0 0 0
862 1 2.022095873030878 -14.634661970024306 -4.763730198500554 0 0 0
643 1 -18.22640344507466 -11.993278862930055 -4.797869637187006 0 0 0
29 1 -9.489594456305227 -8.81834349022671 -5.466391557775699 0 0 0
281 1 16.832822656761277 -9.6368255110055 -5.070355774463451 0 0 0
47 1 19.962525479478078 -9.834266411994708 -4.515586395056726 0 0 0
513 1 -14.988792832856678 -8.190195073921759 -5.440013479274769 0 0 0
1084 2 0.0996288605517853 -7.80301726344718 -4.632592621798166 0 0 0
665 1 12.704072123049027 -7.283258917850506 -5.013719443286102 0 0 0
459 1 -10.280618699419554 -5.8852437160821465 -4.573185327238075 0 0 0
875 1 -11.014205115896011 -6.718409013089923 -4.360741152751475 0 0 0
1023 2 -2.2740735605787337 -6.978629459229753 -4.795842423617396 0 0 0
912 1 -15.880348654535869 -5.472627232244 -5.0617917816614675 0 0 0
61 1 -16.736373899826336 -3.144382203339758 -4.962837078826963 0 0 0
901 1 -16.37762731703518 -4.091212592736162 -5.458378470391933 0 0 0
651 1 -15.547652023819486 -3.414023183100416 -5.170853913890725 0 0 0
1114 2 1.8642733442058363 -3.035858062037954 -4.461613122072411 0 0 0
1121 2 8.036886648292134 -4.046102154090116 -5.677807585186237 0 0 0
474 1 -15.091987920780854 -2.416090903120817 -5.451073475718229 0 0 0
1098 2 -6.897268023759717 -2.383675329565851 -4.862528026505619 0 0 0
86 1 -16.580713421714627 -1.0372050854752155 -4.522402506019983 0 0 0
1063 2 -4.8313777124655335 -0.9652134082118113 -4.683503631820671 0 0 0
755 1 -19.66786295160086 2.2273724443406673 -4.551327966410355 0 0 0
342 1 -16.221721021561752 1.5347906116092513 -4.774190683278343 0 0 0
225 1 -14.159351312573268 5.3340429439189885 -4.401977709372045 0 0 0