ITEM: TIMESTEP
0
ITEM: NUMBER OF ATOMS
96
ITEM: BOX BOUNDS pp pp pp
0.0000000000000000e+00 1.0934900000000001e+01
0.0000000000000000e+00 1.0934900000000001e+01
0.0000000000000000e+00 1.0934900000000001e+01
ITEM: ATOMS id type x y z vx vy vz q
1 1 0 0 0 -0.00196389 0.00192038 0.00173121 1.39695
2 1 0 2.73373 2.73373 -0.00223213 -0.0018846 -0.00229918 1.39695
3 1 2.73373 0 2.73373 0.000952246 0.00058632 0.0017122 1.39695
4 1 2.73373 2.73373 0 0.001311 -0.000505167 -0.00150899 1.39695
5 2 1.36686 1.36686 4.10059 -0.00339523 0.00419075 0.00631279 -0.698477
6 2 1.36686 4.10059 4.10059 -0.00484851 -0.00192734 -0.00644265 -0.698477
7 2 1.36686 4.10059 1.36686 -0.00313193 -0.00418757 0.00475661 -0.698477
8 2 1.36686 1.36686 1.36686 -0.00404444 0.00591891 -0.0037414 -0.698477
9 2 4.10059 1.36686 1.36686 0.00568294 0.00603397 -0.00268946 -0.698477
10 2 4.10059 4.10059 1.36686 0.00176975 0.000318655 -0.0040994 -0.698477
11 2 4.10059 4.10059 4.10059 0.00542701 -0.0021286 0.00648034 -0.698477
12 2 4.10059 1.36686 4.10059 0.00580735 0.00591178 -0.00612992 -0.698477
13 1 0 0 5.46745 0.00153537 0.0020517 -0.000963446 1.39695
14 1 0 2.73373 8.20117 -0.00218105 0.00111852 0.000126316 1.39695
15 1 2.73373 0 8.20117 -0.00112982 -0.00138184 0.00231372 1.39695
16 1 2.73373 2.73373 5.46745 -0.00112932 0.000282487 0.000835655 1.39695
17 2 1.36686 1.36686 9.56804 0.000887171 0.000113942 -0.0018596 -0.698477
18 2 1.36686 4.10059 9.56804 0.000950201 -0.00222532 0.00287608 -0.698477
19 2 1.36686 4.10059 6.83431 -0.00528896 0.000609671 -0.00613261 -0.698477
20 2 1.36686 1.36686 6.83431 0.00051289 -0.00421098 0.00203323 -0.698477
21 2 4.10059 1.36686 6.83431 0.00557895 -0.00218024 0.00159622 -0.698477
22 2 4.10059 4.10059 6.83431 -0.000763521 -0.00539418 -0.00485091 -0.698477
23 2 4.10059 4.10059 9.56804 0.000347275 -0.00544072 -0.00474988 -0.698477
24 2 4.10059 1.36686 9.56804 -0.00143573 -0.00366693 -0.00365743 -0.698477
25 1 0 5.46745 0 0.000501087 -0.00153318 0.000858416 1.39695
26 1 0 8.20117 2.73373 0.000550191 -0.000125243 -0.00111285 1.39695
27 1 2.73373 5.46745 2.73373 0.00181993 -0.0012816 -0.000498085 1.39695
28 1 2.73373 8.20117 0 0.00092056 0.00201832 0.00218411 1.39695
29 2 1.36686 6.83431 4.10059 0.000176556 0.00312227 0.00248287 -0.698477
30 2 1.36686 9.56804 4.10059 -0.00372378 -0.002354 -0.00107134 -0.698477
31 2 1.36686 9.56804 1.36686 0.00422924 0.000878695 -0.0029698 -0.698477
32 2 1.36686 6.83431 1.36686 -0.00167215 -0.00243731 0.00181826 -0.698477
33 2 4.10059 6.83431 1.36686 -0.00473069 -0.000534075 0.00302286 -0.698477
34 2 4.10059 9.56804 1.36686 -0.00580995 -0.00635146 -0.000722353 -0.698477
35 2 4.10059 9.56804 4.10059 0.00201725 -0.000500393 0.00242334 -0.698477
36 2 4.10059 6.83431 4.10059 -0.00565345 0.00278008 -0.00605702 -0.698477
37 1 0 5.46745 5.46745 0.00118325 0.00136625 0.00175639 1.39695
38 1 0 8.20117 8.20117 0.00068813 -0.000510719 -0.00171712 1.39695
39 1 2.73373 5.46745 8.20117 0.000963602 0.00227028 -0.000837691 1.39695
40 1 2.73373 8.20117 5.46745 -0.000341652 -0.00170505 -0.0017183 1.39695
41 2 1.36686 6.83431 9.56804 -0.00326325 0.00405116 -0.00644091 -0.698477
42 2 1.36686 9.56804 9.56804 -0.000765027 0.00401239 0.0029605 -0.698477
43 2 1.36686 9.56804 6.83431 -0.00209018 0.00286904 -0.00463223 -0.698477
44 2 1.36686 6.83431 6.83431 -0.00650322 0.00557818 0.00211663 -0.698477
45 2 4.10059 6.83431 6.83431 0.00510727 -0.00374668 0.00519179 -0.698477
46 2 4.10059 9.56804 6.83431 -0.000375372 -0.0026131 -0.00267811 -0.698477
47 2 4.10059 9.56804 9.56804 0.00420608 0.0017615 0.00535956 -0.698477
48 2 4.10059 6.83431 9.56804 5.85314e-05 0.00166121 0.00584625 -0.698477
49 1 5.46745 0 0 0.00170451 -0.0011415 0.00116683 1.39695
50 1 5.46745 2.73373 2.73373 0.000677467 5.88022e-05 0.000981566 1.39695
51 1 8.20117 0 2.73373 -0.000455805 0.000914513 0.0016893 1.39695
52 1 8.20117 2.73373 0 -0.00224968 -0.00168346 -0.000636442 1.39695
53 2 6.83431 1.36686 4.10059 -0.00347072 0.00302513 -0.005719 -0.698477
54 2 6.83431 4.10059 4.10059 0.00577074 0.00139385 0.000792499 -0.698477
55 2 6.83431 4.10059 1.36686 -0.00559751 -0.00503991 -0.0027011 -0.698477
56 2 6.83431 1.36686 1.36686 -0.00471605 -0.00523979 -0.00332345 -0.698477
57 2 9.56804 1.36686 1.36686 0.00290469 -0.00263253 0.000490119 -0.698477
58 2 9.56804 4.10059 1.36686 -0.00228302 0.00504327 -0.00189924 -0.698477
59 2 9.56804 4.10059 4.10059 -0.0030838 -0.005442 0.00689604 -0.698477
60 2 9.56804 1.36686 4.10059 0.00547997 -0.00658105 0.00380846 -0.698477
61 1 5.46745 0 5.46745 0.00131861 0.000664019 -0.000401855 1.39695
62 1 5.46745 2.73373 8.20117 -0.00029134 0.000265814 -0.00116444 1.39695
63 1 8.20117 0 8.20117 0.000352164 0.000442817 0.00168679 1.39695
64 1 8.20117 2.73373 5.46745 -0.00109537 0.000921853 -0.00201508 1.39695
65 2 6.83431 1.36686 9.56804 0.00434255 0.00384445 0.00529289 -0.698477
66 2 6.83431 4.10059 9.56804 -0.00153677 0.00161427 -0.00448656 -0.698477
67 2 6.83431 4.10059 6.83431 0.000196208 0.00515151 -0.000303308 -0.698477
68 2 6.83431 1.36686 6.83431 0.00286298 -0.0026458 -0.00329199 -0.698477
69 2 9.56804 1.36686 6.83431 0.00533117 0.00122232 0.000467941 -0.698477
70 2 9.56804 4.10059 6.83431 0.0023969 0.00504397 -0.00405074 -0.698477
71 2 9.56804 4.10059 9.56804 0.000522324 -0.00429325 -0.00276085 -0.698477
72 2 9.56804 1.36686 9.56804 0.0026485 -0.0062216 0.00159894 -0.698477
73 1 5.46745 5.46745 0 0.0019488 -0.00134389 -7.68914e-06 1.39695
74 1 5.46745 8.20117 2.73373 0.00106077 -0.0019757 0.0022672 1.39695
75 1 8.20117 5.46745 2.73373 0.00102494 0.00136508 -0.00116913 1.39695
76 1 8.20117 8.20117 0 -0.00196135 -3.87242e-05 0.00206785 1.39695
77 2 6.83431 6.83431 4.10059 7.55357e-05 0.00461686 -0.00224114 -0.698477
78 2 6.83431 9.56804 4.10059 -0.00278657 -0.00622286 -0.00163579 -0.698477
79 2 6.83431 9.56804 1.36686 0.000834402 0.00244217 0.00349084 -0.698477
80 2 6.83431 6.83431 1.36686 -0.00443272 0.00293554 -0.000225126 -0.698477
81 2 9.56804 6.83431 1.36686 -0.00430936 -0.00131536 0.00272591 -0.698477
82 2 9.56804 9.56804 1.36686 -0.00518003 0.00494605 -0.00366992 -0.698477
83 2 9.56804 9.56804 4.10059 -0.00528887 -0.00359414 -0.00129366 -0.698477
84 2 9.56804 6.83431 4.10059 0.00468761 -0.00226547 0.00503812 -0.698477
85 1 5.46745 5.46745 5.46745 -0.00224741 0.00205362 -0.00108081 1.39695
86 1 5.46745 8.20117 8.20117 0.00126472 -0.000551241 0.000298872 1.39695
87 1 8.20117 5.46745 8.20117 0.00184518 0.000272997 0.000774425 1.39695
88 1 8.20117 8.20117 5.46745 -0.000422711 -0.00148697 -0.00178645 1.39695
89 2 6.83431 6.83431 9.56804 0.00164961 -0.0060321 -0.00650933 -0.698477
90 2 6.83431 9.56804 9.56804 -0.00366646 0.00248256 -0.00621385 -0.698477
91 2 6.83431 9.56804 6.83431 -0.00116019 -0.000857242 0.00349348 -0.698477
92 2 6.83431 6.83431 6.83431 -0.000697358 0.00429912 -0.00101388 -0.698477
93 2 9.56804 6.83431 6.83431 -0.00133703 0.00401994 -0.00285037 -0.698477
94 2 9.56804 9.56804 6.83431 -0.00381348 0.000142179 0.00303809 -0.698477
95 2 9.56804 9.56804 9.56804 -0.00595917 -0.00642285 0.00507301 -0.698477
96 2 9.56804 6.83431 9.56804 1.3516e-05 0.000190656 -0.0053133 -0.698477
ITEM: TIMESTEP
1000
ITEM: NUMBER OF ATOMS
96
ITEM: BOX BOUNDS pp pp pp
-1.8038701062299545e-02 1.0952938701062248e+01
-1.8038701062299545e-02 1.0952938701062248e+01
-1.8038701062299545e-02 1.0952938701062248e+01
ITEM: ATOMS id type x y z vx vy vz q
12 2 4.09635 1.20299 4.15456 0.00230953 -0.00731273 -0.00147146 -0.705001
11 2 4.06261 4.06877 4.1391 -0.00701994 0.00292124 0.00369578 -0.681823
50 1 5.44932 2.70394 2.74528 0.000206247 3.37196e-05 -3.55243e-05 1.33052
10 2 3.94649 4.16821 1.33245 0.00232667 0.00532461 -0.00203265 -0.69874
5 2 1.39381 1.37977 3.99287 1.62919e-06 -0.00237636 -0.00400762 -0.686816
6 2 1.45859 4.08833 4.22814 0.00420279 0.00437973 -0.00143845 -0.669195
7 2 1.32304 4.09111 1.34039 0.00352294 -0.00146189 0.00123245 -0.72094
8 2 1.52083 1.30569 1.42823 -0.0044135 0.00423563 -0.00606204 -0.687677
9 2 4.08964 1.31386 1.3452 -0.00203661 -0.00360925 0.00426375 -0.661869
4 1 2.68758 2.79731 0.039415 0.00065062 -0.00231787 -0.00261512 1.40069
16 1 2.77524 2.69941 5.40993 -0.00160516 0.000905586 0.00344284 1.39162
25 1 -0.00706731 5.4616 0.0171321 -0.00240186 -0.0011841 -0.000603746 1.37168
73 1 5.4131 5.45681 0.00113188 -0.00156631 -0.00125409 -0.00176025 1.37851
23 2 4.157 4.04623 9.61849 0.000663469 -0.0049589 0.00645402 -0.735534
24 2 4.14039 1.34193 9.57948 0.00488083 -0.00434854 -0.00212936 -0.692819
39 1 2.77825 5.37508 8.23837 -6.17391e-05 0.000827479 -0.0026192 1.40709
22 2 4.19027 4.14697 6.77487 0.0021982 0.000522958 -0.00205016 -0.71952
17 2 1.37332 1.44853 9.61166 0.00393772 3.92582e-05 -0.00217325 -0.688466
18 2 1.37342 4.12706 9.52637 0.00362756 0.000118428 0.00835843 -0.700353
19 2 1.34513 4.06257 6.80442 0.00307915 0.00644827 0.00524517 -0.689051
20 2 1.26629 1.30567 6.85865 0.000358722 0.00227422 -0.000909844 -0.713827
21 2 4.11315 1.39244 6.88276 -0.0080864 0.00277251 0.00638913 -0.689105
13 1 -0.00286597 0.0203881 5.51022 0.000577025 0.001282 -0.000154344 1.38973
49 1 5.45572 0.00658798 10.8638 0.00113597 -0.000509461 -0.000676509 1.42282
36 2 4.14078 6.79506 4.1392 0.00442763 -0.00549451 -0.000163277 -0.687235
61 1 5.44946 10.9168 5.42833 -0.00181766 -0.00219549 0.000264076 1.39329
35 2 4.00462 9.66809 4.04326 0.00175982 0.00223443 0.00651523 -0.706779
3 1 2.66778 10.8765 2.7161 5.20764e-05 0.000959616 -0.000288812 1.45347
29 2 1.18276 6.8417 4.05688 0.00378572 0.00712233 0.00218451 -0.696256
30 2 1.34745 9.58663 4.07859 -0.00390407 0.0015213 0.010202 -0.706614
31 2 1.2815 9.67795 1.33105 -0.000323074 0.00315624 0.003403 -0.736025
32 2 1.32372 6.87096 1.39512 0.00642501 -0.0022451 -0.00107762 -0.719317
33 2 4.0692 6.79121 1.32162 0.00328312 0.00463851 0.00157563 -0.703667
34 2 3.97504 9.65931 1.19769 0.00397725 0.00141184 -0.000915678 -0.69327
27 1 2.7184 5.55065 2.72395 -0.000435885 -0.00093486 -0.00085891 1.38122
47 2 4.04885 9.5594 9.49777 0.000111053 -0.00978882 -9.41147e-05 -0.696516
48 2 3.98542 6.80328 9.48599 0.00334008 -0.000517364 0.0047111 -0.687047
28 1 2.69432 8.23063 10.8914 -0.000333062 0.00110919 0.00126931 1.36614
46 2 4.14359 9.57631 6.86133 -0.00492477 0.00232582 -0.00345381 -0.69955
41 2 1.36438 6.80029 9.50529 0.00294007 0.00695907 -0.00544732 -0.662253
42 2 1.34251 9.5875 9.44903 -0.00378982 0.00206912 0.0048527 -0.718421
43 2 1.4562 9.57225 6.82979 0.00150801 0.000562545 0.00228647 -0.699559
44 2 1.27633 6.87936 6.96093 -0.00327918 -0.00674303 -0.00243201 -0.678454
45 2 3.93385 6.89173 6.85345 7.84286e-05 -0.00177969 0.00483924 -0.687353
86 1 5.44213 8.22263 8.16681 -0.001192 -0.000250543 3.19494e-05 1.39292
1 1 0.0771993 10.9498 10.9315 -0.000924957 0.000531758 0.000140987 1.37314
40 1 2.73097 8.23038 5.51071 -0.00029699 -0.000429942 0.000603698 1.37427
15 1 2.71052 10.951 8.21287 -0.000529728 -0.00127921 -0.00037278 1.40039
59 2 9.53474 3.98012 4.17936 0.00372655 -0.00159359 -0.00411547 -0.695135
52 1 8.25111 2.79809 0.0098329 0.000259966 -0.000170793 -0.00270497 1.39817
58 2 9.53597 4.1509 1.36069 0.00253694 0.00286066 0.0010074 -0.725396
60 2 9.65215 1.29248 4.09065 -0.00126552 0.00501935 0.00984754 -0.696251
53 2 6.94212 1.32896 4.10189 -0.0012887 0.00334118 -0.000677214 -0.701656
54 2 6.83519 4.07034 4.12255 0.00241981 -0.00636352 -0.00203532 -0.669809
55 2 6.81992 4.15313 1.44526 -0.00150774 -0.00611542 0.00149362 -0.671295
56 2 6.84107 1.40453 1.16498 -0.00268039 0.00356428 -0.000935873 -0.677664
57 2 9.61555 1.37251 1.27623 0.0017467 -0.00448789 0.00332077 -0.699385
2 1 10.9414 2.73555 2.72383 -0.00082315 1.50248e-05 -0.00251311 1.35651
75 1 8.27899 5.46441 2.76802 -0.00111387 -0.000258745 -0.00111978 1.38953
51 1 8.2542 -0.0111276 2.71304 -0.00284029 0.00066016 -0.000101573 1.39839
62 1 5.47799 2.75277 8.26095 -0.0011194 7.86965e-05 0.000301732 1.3811
72 2 9.73313 1.25036 9.58872 -0.001823 -0.000347397 -0.00330184 -0.67879
70 2 9.56597 4.06131 6.8653 -0.000953915 0.0031842 0.00198032 -0.702496
71 2 9.49062 4.07873 9.59499 -0.00336769 -0.00486284 0.00111693 -0.696645
65 2 6.87249 1.30922 9.45045 0.000684744 -0.00194869 0.00332957 -0.69881
66 2 6.92935 4.06767 9.62759 -0.00408597 -0.000542887 3.78875e-05 -0.704952
67 2 6.86669 4.08469 6.85453 -1.90304e-05 0.00372798 0.0064287 -0.707495
68 2 6.9449 1.30718 6.74066 -0.00248362 -0.00179124 -0.00327053 -0.67914
69 2 9.61746 1.26356 6.82732 0.00583829 0.00517943 0.00598537 -0.701553
14 1 10.9433 2.71541 8.14274 0.00020132 -0.000886622 -8.85423e-05 1.39235
64 1 8.19791 2.64778 5.51139 0.00298757 0.00108344 0.000633756 1.41863
85 1 5.49002 5.42888 5.53493 -0.00182927 0.00142052 0.000306742 1.39122
87 1 8.2153 5.46516 8.23449 -0.000526248 -0.00171821 -0.00123005 1.39871
84 2 9.55934 6.84967 4.18898 0.000670375 -0.00626252 0.00639678 -0.697507
26 1 10.9326 8.21155 2.70257 0.00184586 0.00168085 0.000266519 1.37243
83 2 9.43146 9.52086 4.15037 0.0023706 -0.00702275 0.000112638 -0.674045
82 2 9.41163 9.54841 1.39904 -0.00280319 0.00142354 -0.00111837 -0.7001
77 2 6.9141 6.81815 4.04993 0.00191438 -0.000814375 0.00199638 -0.678891
78 2 6.8126 9.52098 4.05713 0.00148856 -0.00241974 0.00280055 -0.686731
79 2 6.80805 9.69359 1.42243 0.000503563 0.000926807 -0.0018736 -0.670195
80 2 6.74953 6.80243 1.28418 -0.00197143 -0.00156944 0.001779 -0.673467
81 2 9.52112 6.8172 1.31478 0.00326052 0.00315165 -0.00184716 -0.695085
74 1 5.49725 8.24192 2.6619 -0.000169449 -7.5618e-06 0.000864156 1.3469
88 1 8.17042 8.19364 5.44922 0.00299656 -0.00179012 9.62297e-05 1.4354
96 2 9.54688 6.83054 9.61486 -0.00193836 0.00272213 -0.00600808 -0.685452
93 2 9.53162 6.8424 6.9221 -0.000645686 -0.00436306 -0.00319319 -0.702155
94 2 9.51644 9.59975 6.78096 -0.00763975 0.00600371 0.000178906 -0.679226
95 2 9.50145 9.51701 9.54641 0.00915515 -0.00216565 -0.000938176 -0.711587
89 2 6.76477 6.91407 9.45476 0.00719513 0.00467273 0.00419083 -0.693213
90 2 6.84321 9.62972 9.80527 -0.00240318 0.00132654 -0.0028677 -0.716597
91 2 6.80322 9.5649 6.8179 6.28008e-05 -0.000829293 -0.00607854 -0.6905
92 2 6.82615 6.87899 6.77954 0.00610456 0.00584359 -0.00347873 -0.711101
38 1 10.9468 8.20872 8.16049 0.00158462 0.00172657 0.00108379 1.4022
63 1 8.22925 10.9307 8.27993 -0.000143903 0.00031399 0.000844105 1.39771
76 1 8.21443 8.25302 10.902 0.00136275 1.21473e-05 0.00141206 1.4104
37 1 10.9457 5.48235 5.54327 0.00155768 0.00142223 0.000402024 1.37423
ITEM: TIMESTEP
2000
ITEM: NUMBER OF ATOMS
96
ITEM: BOX BOUNDS pp pp pp
-2.2534615826686810e-02 1.0957434615826607e+01
-2.2534615826686810e-02 1.0957434615826607e+01
-2.2534615826686810e-02 1.0957434615826607e+01
ITEM: ATOMS id type x y z vx vy vz q
12 2 4.20782 1.28846 4.14685 -0.00301317 -0.0056022 -0.00378463 -0.690447
11 2 4.07741 3.85551 4.01857 -0.00578223 -0.000712745 0.000422885 -0.706739
9 2 4.08064 1.37321 1.43006 -0.00296902 0.000229064 0.00328285 -0.666339
10 2 4.22741 4.10471 1.34927 -0.00790422 0.0036197 -0.00122634 -0.700371
5 2 1.39004 1.3269 3.96485 0.00862023 0.00359009 -0.000503235 -0.702208
6 2 1.35303 4.04725 4.29305 0.00711593 0.0023961 0.00379323 -0.678787
7 2 1.43264 4.14796 1.47301 -0.00252225 -0.00303792 -0.00372996 -0.713742
8 2 1.40727 1.32431 1.40932 0.00797231 0.00501505 -0.00156175 -0.690712
85 1 5.46715 5.45828 5.40923 0.00126226 -9.93582e-05 -5.74242e-05 1.39105
2 1 0.0384087 2.69913 2.80928 -0.00155805 0.000832149 0.000261513 1.384
16 1 2.79174 2.69721 5.39133 -0.000641313 0.000845465 0.000850934 1.41205
4 1 2.72094 2.82495 0.0589774 0.000196625 -0.00191087 -0.00140545 1.40303
1 1 -0.00595294 -0.000542107 -0.0208303 -0.00116813 -0.000330929 0.000522573 1.34281
23 2 4.12784 4.08029 9.73602 0.00324242 -0.00379493 0.0088276 -0.702502
24 2 4.15238 1.31689 9.73603 -0.00232725 -0.00219688 0.00375313 -0.681594
15 1 2.75248 0.0613754 8.1032 0.000323767 -3.08051e-05 -0.000641202 1.37062
22 2 4.06123 4.18716 6.86024 -0.00187704 -0.00192738 0.00195509 -0.712633
17 2 1.40418 1.39577 9.59945 -0.00293828 -0.00153799 0.00285849 -0.682228
18 2 1.38134 4.09492 9.75291 -0.00246774 0.00532622 -0.00359132 -0.695681
19 2 1.51291 4.07638 6.92755 -0.00332602 0.0044287 -9.36228e-05 -0.665362
20 2 1.36613 1.3948 6.78986 -0.00584689 -0.00521551 -0.00590832 -0.689151
21 2 4.04771 1.37577 6.95897 -0.00177678 0.00062947 0.00267022 -0.691824
14 1 0.0239497 2.74607 8.25766 -8.72515e-05 -0.000101846 0.00126764 1.38844
39 1 2.7848 5.37581 8.14653 -0.000379379 -0.000672459 0.000823764 1.39231
36 2 4.21769 6.7222 4.13302 0.00388347 -0.00762456 -0.00630352 -0.723136
3 1 2.67736 10.8955 2.65688 -5.30151e-05 0.000170259 0.000184063 1.40829
35 2 4.09889 9.45796 4.07506 -7.77023e-05 0.00280311 -0.00376906 -0.684055
74 1 5.44524 8.24171 2.7101 -4.28708e-05 0.00174793 7.33788e-05 1.4111
29 2 1.27492 6.77367 4.04903 0.00101267 0.000178338 0.00312576 -0.689306
30 2 1.37147 9.52956 4.05116 0.00127137 0.00237765 -0.000732843 -0.692497
31 2 1.29669 9.56859 1.2415 -0.000161904 0.00655074 -0.0025899 -0.711676
32 2 1.35095 6.89106 1.35195 0.00726854 -0.0050515 0.00102858 -0.701837
33 2 4.12039 6.99973 1.33694 0.00389527 0.00038131 0.00396042 -0.701661
34 2 4.07726 9.70576 1.38164 -0.00106255 0.000130611 -0.0051724 -0.693246
27 1 2.74085 5.52459 2.73019 -3.17646e-05 0.00151556 0.000138815 1.3482
47 2 4.13619 9.55328 9.54828 0.000512697 -0.00355843 -0.00327892 -0.71272
48 2 4.23732 6.76411 9.55354 -0.00452449 -0.00170232 0.00443751 -0.701254
28 1 2.6593 8.18439 10.8521 -0.000110469 0.000247479 0.000728604 1.35826
46 2 4.15195 9.66208 6.75005 0.000826408 -0.00102695 0.00493866 -0.65544
41 2 1.35165 6.86695 9.49734 0.00962039 -0.00345874 0.000329048 -0.694583
42 2 1.30969 9.6425 9.53933 -0.00517626 -0.00262711 -0.00430177 -0.680193
43 2 1.33201 9.59749 6.6985 0.00965424 0.00296778 0.00207248 -0.693043
44 2 1.33174 6.74973 6.89242 0.00559956 0.00807181 -0.00570384 -0.690838
45 2 4.09981 6.96827 6.7803 -0.00558278 -0.00151269 -7.03051e-05 -0.701465
86 1 5.4224 8.22741 8.27226 -0.000918307 -0.0012674 -0.00158162 1.39553
49 1 5.41047 10.9488 10.9323 0.000458383 0.00047875 0.00106907 1.41342
38 1 -0.0151393 8.15321 8.17464 -7.63272e-05 -0.000796514 0.000888368 1.39261
40 1 2.70166 8.11886 5.47069 0.00011459 0.000521069 0.000663054 1.3728
59 2 9.55318 4.12642 4.22259 -0.00555331 -0.00199402 -0.00689083 -0.711769
52 1 8.34694 2.74494 0.0444822 -0.00113289 -0.000242549 -0.00041595 1.34718
58 2 9.68112 4.11339 1.49083 0.00737496 0.00460877 0.000544023 -0.691821
60 2 9.64613 1.24703 4.15715 -0.00618061 0.00324674 -0.0035494 -0.717012
53 2 6.91582 1.40322 4.12791 -0.00137184 -0.00177055 0.00149391 -0.728996
54 2 6.80184 4.17777 4.03565 0.00191237 0.00575818 -0.00438899 -0.718753
55 2 6.90164 4.19752 1.42719 0.00269633 -0.000682746 0.00303645 -0.700749
56 2 6.80517 1.31928 1.47642 0.000295407 -0.00375866 -0.00788561 -0.707559
57 2 9.61524 1.38966 1.43015 -0.00732874 -0.00294283 0.000421726 -0.721062
50 1 5.51108 2.72354 2.7001 0.00146493 0.00100928 -0.000473646 1.42863
37 1 10.8085 5.45809 5.45899 0.000413619 -0.000638034 -0.000352445 1.40531
51 1 8.20836 0.028712 2.70735 0.00100832 0.000490229 -0.0015983 1.42686
64 1 8.2025 2.63022 5.48004 -0.000825591 0.000838384 0.00111938 1.40046
72 2 9.59798 1.49575 9.50837 -0.00151448 0.00234837 0.00381048 -0.688195
70 2 9.62144 3.97171 6.93422 0.000817148 -0.00295614 -0.00280347 -0.686419
71 2 9.66701 4.14523 9.65754 -0.000158887 0.00557688 -0.00395009 -0.679604
65 2 6.80786 1.32127 9.51083 -0.000244349 -1.14013e-05 -0.000220383 -0.693982
66 2 6.94482 4.11056 9.70563 0.00417876 0.00454822 -0.000515556 -0.693023
67 2 6.8005 4.04367 6.91534 -3.8916e-05 0.0059896 0.00190939 -0.669188
68 2 6.85432 1.44886 6.79101 -0.000888999 -0.00124782 -0.00127569 -0.686414
69 2 9.43315 1.23561 6.89145 -0.00251776 -2.68674e-05 -0.00141723 -0.657548
62 1 5.49774 2.75076 8.30853 -0.000215388 0.000197874 -0.000902646 1.3754
87 1 8.1713 5.46479 8.21889 0.00022925 -0.00087053 -0.000281944 1.38995
84 2 9.49889 6.81536 4.18105 -0.000923563 0.00278423 -0.00321833 -0.697666
26 1 10.9411 8.25727 2.67061 -0.000328061 0.00190341 0.0020723 1.37802
83 2 9.66259 9.64744 4.09316 0.00195984 -0.00311835 -0.00814983 -0.691805
82 2 9.47671 9.6739 1.36249 0.0041332 0.00144945 0.00411759 -0.707857
77 2 6.80735 7.00573 4.13226 0.00578536 0.00152224 -0.000149276 -0.69645
78 2 6.92568 9.68906 4.12121 0.00159072 0.00377342 0.00465131 -0.710453
79 2 6.81743 9.63411 1.35846 0.0117421 0.00122851 -0.00377319 -0.668796
80 2 6.81066 6.94879 1.37536 0.000582126 0.00109537 0.00209471 -0.699205
81 2 9.63485 6.80702 1.43357 -0.00358677 0.00280567 -0.000650268 -0.697715
73 1 5.49412 5.51209 0.0389845 0.000807022 -1.20945e-05 0.000205997 1.39239
75 1 8.15495 5.47698 2.79573 -7.89635e-05 -0.00109494 0.000588409 1.39634
13 1 10.9077 10.9037 5.40467 -0.000442863 -0.00130262 -0.00094017 1.40031
25 1 10.9498 5.491 0.0695991 -0.00159297 -0.00219624 -0.00110501 1.3974
61 1 5.55289 10.9564 5.33082 8.16785e-05 -0.00227932 0.00125523 1.39257
96 2 9.65888 6.85487 9.68568 0.00575538 0.00323094 0.00191827 -0.684485
93 2 9.60731 6.71378 6.87621 0.00217345 0.0038919 0.000929379 -0.714632
94 2 9.54084 9.51342 6.84405 0.00119588 0.00213332 -0.00194925 -0.677016
95 2 9.52917 9.46905 9.48368 0.00477801 -0.00187803 -0.000638216 -0.679104
89 2 6.80939 6.98261 9.54003 0.00271533 -0.00213085 0.000610904 -0.70214
90 2 6.81317 9.65864 9.58908 0.000621211 0.0023514 0.00804995 -0.705342
91 2 6.8436 9.57722 6.88096 -0.000787771 -0.00327268 0.000983935 -0.715104
92 2 6.93125 6.57634 6.82101 0.00297514 0.000353372 -0.0051684 -0.693388
63 1 8.06616 10.9325 8.20171 0.000726972 -0.00167668 0.000357716 1.41326
76 1 8.23262 8.23312 10.9229 -0.00168974 0.000813498 0.000864101 1.37736
88 1 8.17295 8.18997 5.50273 -0.00066347 0.0003706 -0.00110895 1.38457
ITEM: TIMESTEP
3000
ITEM: NUMBER OF ATOMS
96
ITEM: BOX BOUNDS pp pp pp
-2.7352032094103862e-02 1.0962252032094007e+01
-2.7352032094103862e-02 1.0962252032094007e+01
-2.7352032094103862e-02 1.0962252032094007e+01
ITEM: ATOMS id type x y z vx vy vz q
12 2 4.14255 1.25449 3.99868 0.00313609 0.00430868 0.000787494 -0.68441
11 2 4.10183 3.94874 4.12074 0.00120679 -0.00957523 -1.64347e-05 -0.699523
9 2 4.09408 1.41661 1.32847 0.00138143 -0.000312732 0.0034336 -0.676044
10 2 4.15808 3.99757 1.3727 0.00246833 -0.000159899 -0.0035572 -0.697581
5 2 1.28938 1.35704 4.15535 -0.00286939 -0.000269903 -0.00344884 -0.697834
6 2 1.24012 4.05401 4.11448 -0.00285115 -0.00137654 0.000161577 -0.692731
7 2 1.35308 4.10836 1.30582 -0.0087629 -0.00188336 0.00177337 -0.735691
8 2 1.44438 1.19748 1.37824 0.00068572 0.00155309 -0.0032829 -0.726292
25 1 0.0604865 5.45411 -0.0106881 0.00218409 0.000380926 -0.00125395 1.39302
4 1 2.69704 2.78507 0.0208159 -0.000495328 0.000622241 0.000610762 1.38732
16 1 2.75832 2.68823 5.39162 0.000733176 0.000373978 -0.000687378 1.39133
2 1 0.0140723 2.67896 2.77158 -0.000416251 -0.000271023 0.00174714 1.38342
23 2 4.02776 4.05066 9.53108 0.00183842 0.00204044 -0.00535166 -0.686417
24 2 4.05708 1.36406 9.68733 -0.0060679 -0.00370271 0.00337242 -0.696178
39 1 2.73257 5.44427 8.20343 -0.000484207 -0.00102321 0.00136252 1.39039
22 2 4.06128 4.11243 6.85699 0.0020115 -0.000466815 -0.00388197 -0.689118
17 2 1.3711 1.43041 9.57611 0.00857456 -0.00171031 0.00874606 -0.703166
18 2 1.30387 4.22149 9.47263 -0.00373169 0.00350751 -0.00585662 -0.701259
19 2 1.33708 4.10754 6.71825 -0.000454532 -0.000875103 -0.00505727 -0.65944
20 2 1.42873 1.39475 6.8271 -0.00309328 -0.000624807 0.000831281 -0.689663
21 2 4.18564 1.30984 6.7968 -0.00255115 0.00281121 -0.000628317 -0.693561
14 1 0.00420534 2.7104 8.22726 0.000342725 -0.000217713 0.000970757 1.38029
49 1 5.44191 0.0682625 10.9232 -0.00171824 0.00154355 0.000747121 1.40771
15 1 2.71532 -0.019914 8.22989 0.000569587 0.0010888 0.00110244 1.36639
61 1 5.44228 0.0093489 5.46846 -9.03782e-05 0.00034847 0.00076888 1.40069
36 2 4.0711 6.81802 4.03442 -0.00300449 -0.000745489 -7.32426e-05 -0.680279
34 2 4.08912 9.60789 1.38974 -0.00214877 -0.000864037 -0.00137222 -0.677475
35 2 4.1331 9.49032 3.94875 -0.00085097 -8.99251e-05 -0.00657795 -0.663738
74 1 5.41529 8.25609 2.70112 0.000283124 0.000953619 0.000657018 1.40956
29 2 1.45995 6.85233 4.09838 -0.00452529 0.00122793 0.00349612 -0.697319
30 2 1.42188 9.53876 4.13493 0.000565196 -0.0106639 -0.00535215 -0.669618
31 2 1.39586 9.6052 1.25632 -0.00357653 -0.00402517 -0.00691715 -0.687225
32 2 1.34382 6.96608 1.24148 0.00281805 0.00425137 -0.0022048 -0.694709
33 2 3.98246 6.74918 1.39286 0.00192509 -0.000869924 0.00129056 -0.695425
27 1 2.71849 5.52519 2.77313 0.000821744 0.00203834 0.00147743 1.37111
3 1 2.65953 10.9579 2.61254 0.000493371 -0.000652094 0.00118037 1.41261
40 1 2.67748 8.18395 5.46183 -0.000160736 -0.0014786 -0.000907875 1.40298
73 1 5.42166 5.50019 -0.0177571 0.0013108 0.00139369 0.00175237 1.39169
47 2 4.1607 9.51374 9.57291 -0.00155802 0.00577117 -0.00624799 -0.695382
48 2 4.14111 6.71151 9.64081 -0.0011941 -0.00182858 -0.0031741 -0.724874
86 1 5.40901 8.17203 8.12881 -0.00113349 -0.00280565 -0.000143764 1.39662
46 2 4.01781 9.62928 6.80425 0.0072251 -0.00493158 0.00111079 -0.69981
41 2 1.24211 6.82669 9.51658 -0.000810875 -0.000415551 0.0025963 -0.701645
42 2 1.42342 9.61978 9.44201 -0.00319577 -0.00304921 -0.00626103 -0.717231
43 2 1.20452 9.57328 6.70499 0.00250691 -0.00129662 -0.00170352 -0.698447
44 2 1.31264 6.75638 6.80174 -0.00762981 0.000972742 0.0075145 -0.709115
45 2 4.15102 6.92566 6.82801 -0.00154658 0.00484157 0.00104019 -0.731253
1 1 0.0400585 10.9572 10.9013 0.000103744 0.00256247 -0.00118108 1.38813
28 1 2.69292 8.18618 10.8728 0.000600505 0.00058651 -0.00141372 1.37074
59 2 9.58651 3.99895 4.19944 -0.00245812 0.0102488 0.000827987 -0.705503
52 1 8.26211 2.70525 0.0481672 0.00029382 -0.000212548 0.00139277 1.36174
58 2 9.61716 4.11781 1.40084 0.00815602 0.00141398 0.00162927 -0.672537
60 2 9.5579 1.23056 4.01229 0.00111144 -0.00332038 0.000200873 -0.680386
53 2 6.7752 1.4523 4.1447 0.00488279 -0.00261637 -0.0043444 -0.678896
54 2 6.8404 4.17197 4.26498 0.000285846 0.000246243 -0.00114876 -0.695136
55 2 6.88647 4.10162 1.34696 0.000152187 0.00345436 0.000363498 -0.672726
56 2 6.80078 1.37012 1.38618 -0.00195187 0.00201445 -0.000312968 -0.700531
57 2 9.67694 1.47062 1.28421 0.00376993 -0.00158287 -0.00670318 -0.703966
50 1 5.48242 2.71805 2.69433 0.00125395 -0.000681258 -0.00169593 1.41466
63 1 8.27906 0.00865614 8.24539 -0.000275055 -0.0027799 0.000574777 1.36081
72 2 9.72536 1.26609 9.53719 -0.00287593 -0.00027833 -0.00264491 -0.728457
70 2 9.71845 4.20034 6.92618 0.000289434 -0.00226324 0.00185544 -0.702846
71 2 9.64486 4.07468 9.66674 -0.00152531 -0.000185672 -0.00228183 -0.682607
65 2 6.78043 1.31517 9.69598 -0.00239965 -0.00406606 -0.00235021 -0.722448
66 2 6.81037 4.16967 9.61505 0.00359612 -0.00521028 -0.00403757 -0.686458
67 2 6.80852 4.0111 6.94707 -0.00792233 0.00145094 -0.000703947 -0.718421
68 2 6.8495 1.17826 6.78828 0.00107452 -0.00249402 0.000738096 -0.681933
69 2 9.48601 1.36736 6.73819 -0.00186782 -0.000260236 0.00196864 -0.720017
37 1 10.9388 5.42103 5.52325 0.0019689 -0.00165813 -0.000343722 1.40449
62 1 5.49665 2.70374 8.26024 0.00039646 0.000100253 -0.000913002 1.3654
64 1 8.18376 2.70754 5.48563 -0.00177573 0.000929358 -8.2246e-05 1.38627
85 1 5.51148 5.43631 5.57277 1.0911e-06 0.000978029 -0.000101933 1.38732
84 2 9.69851 6.93774 4.092 -0.00462501 -0.0014434 -0.00283445 -0.693778
81 2 9.60029 6.88819 1.49379 -0.00316775 -0.00269278 0.00202383 -0.687045
83 2 9.57114 9.59853 3.93274 0.0025622 -0.000215784 -0.00293889 -0.685906
82 2 9.64768 9.68272 1.27821 -0.00354696 0.000513981 0.005107 -0.691716
77 2 6.91461 6.90888 4.10913 -0.00203305 -0.00136415 0.00169942 -0.684711
78 2 6.78553 9.5604 4.06409 -0.00161773 0.0028602 0.00264317 -0.691229
79 2 6.84002 9.59517 1.31742 0.00150349 0.00171829 0.00492153 -0.674003
80 2 6.77975 6.87845 1.23735 -0.00162663 -0.00310946 -0.00234462 -0.675338
51 1 8.2962 10.9369 2.67611 0.00203601 0.00107487 -0.000936238 1.3777
75 1 8.29612 5.51492 2.80373 -0.000516742 -0.000127678 0.00106115 1.34834
26 1 10.918 8.19016 2.71086 -0.00129605 0.00129201 0.00113826 1.40398
96 2 9.56216 6.87215 9.68379 -0.00338621 0.00375343 0.00537225 -0.676028
93 2 9.49841 7.00858 6.82828 -0.0029899 -0.00621502 -0.00092762 -0.684555
94 2 9.66522 9.55066 6.81724 -0.00276712 0.00261927 0.00702008 -0.693767
95 2 9.66725 9.44129 9.53135 -0.000694555 -0.00301168 -0.00120017 -0.694772
89 2 6.85684 6.87868 9.50389 -0.00295818 -0.00257824 -0.00189423 -0.689243
90 2 6.83736 9.65464 9.59741 -0.00618228 0.00334647 0.00322054 -0.662702
91 2 6.83927 9.58458 6.93079 0.00156136 -0.00369948 -0.0012211 -0.68553
92 2 6.75738 6.86285 6.72484 -5.06676e-05 -0.00140237 0.00188575 -0.715579
13 1 10.9421 10.9223 5.54298 0.0005062 -0.00110745 -0.00153588 1.39449
88 1 8.09259 8.25363 5.48815 0.000394106 0.00125826 -0.00179901 1.3998
38 1 10.9331 8.16542 8.15268 0.000575194 -0.00260432 -0.0014141 1.42247
76 1 8.17699 8.24864 10.888 -0.000288066 0.00115308 0.000204921 1.38677
87 1 8.2122 5.46917 8.29485 -0.000305685 0.000688783 0.00122626 1.35299
