ITEM: TIMESTEP
0
ITEM: NUMBER OF ATOMS
96
ITEM: BOX BOUNDS pp pp pp
0.0000000000000000e+00 1.0934900000000001e+01
0.0000000000000000e+00 1.0934900000000001e+01
0.0000000000000000e+00 1.0934900000000001e+01
ITEM: ATOMS id type x y z vx vy vz q 
1 1 0 0 0 -0.00196389 0.00192038 0.00173121 1.39695 
2 1 0 2.73373 2.73373 -0.00223213 -0.0018846 -0.00229918 1.39695 
3 1 2.73373 0 2.73373 0.000952246 0.00058632 0.0017122 1.39695 
4 1 2.73373 2.73373 0 0.001311 -0.000505167 -0.00150899 1.39695 
5 2 1.36686 1.36686 4.10059 -0.00339523 0.00419075 0.00631279 -0.698477 
6 2 1.36686 4.10059 4.10059 -0.00484851 -0.00192734 -0.00644265 -0.698477 
7 2 1.36686 4.10059 1.36686 -0.00313193 -0.00418757 0.00475661 -0.698477 
8 2 1.36686 1.36686 1.36686 -0.00404444 0.00591891 -0.0037414 -0.698477 
9 2 4.10059 1.36686 1.36686 0.00568294 0.00603397 -0.00268946 -0.698477 
10 2 4.10059 4.10059 1.36686 0.00176975 0.000318655 -0.0040994 -0.698477 
11 2 4.10059 4.10059 4.10059 0.00542701 -0.0021286 0.00648034 -0.698477 
12 2 4.10059 1.36686 4.10059 0.00580735 0.00591178 -0.00612992 -0.698477 
13 1 0 0 5.46745 0.00153537 0.0020517 -0.000963446 1.39695 
14 1 0 2.73373 8.20117 -0.00218105 0.00111852 0.000126316 1.39695 
15 1 2.73373 0 8.20117 -0.00112982 -0.00138184 0.00231372 1.39695 
16 1 2.73373 2.73373 5.46745 -0.00112932 0.000282487 0.000835655 1.39695 
17 2 1.36686 1.36686 9.56804 0.000887171 0.000113942 -0.0018596 -0.698477 
18 2 1.36686 4.10059 9.56804 0.000950201 -0.00222532 0.00287608 -0.698477 
19 2 1.36686 4.10059 6.83431 -0.00528896 0.000609671 -0.00613261 -0.698477 
20 2 1.36686 1.36686 6.83431 0.00051289 -0.00421098 0.00203323 -0.698477 
21 2 4.10059 1.36686 6.83431 0.00557895 -0.00218024 0.00159622 -0.698477 
22 2 4.10059 4.10059 6.83431 -0.000763521 -0.00539418 -0.00485091 -0.698477 
23 2 4.10059 4.10059 9.56804 0.000347275 -0.00544072 -0.00474988 -0.698477 
24 2 4.10059 1.36686 9.56804 -0.00143573 -0.00366693 -0.00365743 -0.698477 
25 1 0 5.46745 0 0.000501087 -0.00153318 0.000858416 1.39695 
26 1 0 8.20117 2.73373 0.000550191 -0.000125243 -0.00111285 1.39695 
27 1 2.73373 5.46745 2.73373 0.00181993 -0.0012816 -0.000498085 1.39695 
28 1 2.73373 8.20117 0 0.00092056 0.00201832 0.00218411 1.39695 
29 2 1.36686 6.83431 4.10059 0.000176556 0.00312227 0.00248287 -0.698477 
30 2 1.36686 9.56804 4.10059 -0.00372378 -0.002354 -0.00107134 -0.698477 
31 2 1.36686 9.56804 1.36686 0.00422924 0.000878695 -0.0029698 -0.698477 
32 2 1.36686 6.83431 1.36686 -0.00167215 -0.00243731 0.00181826 -0.698477 
33 2 4.10059 6.83431 1.36686 -0.00473069 -0.000534075 0.00302286 -0.698477 
34 2 4.10059 9.56804 1.36686 -0.00580995 -0.00635146 -0.000722353 -0.698477 
35 2 4.10059 9.56804 4.10059 0.00201725 -0.000500393 0.00242334 -0.698477 
36 2 4.10059 6.83431 4.10059 -0.00565345 0.00278008 -0.00605702 -0.698477 
37 1 0 5.46745 5.46745 0.00118325 0.00136625 0.00175639 1.39695 
38 1 0 8.20117 8.20117 0.00068813 -0.000510719 -0.00171712 1.39695 
39 1 2.73373 5.46745 8.20117 0.000963602 0.00227028 -0.000837691 1.39695 
40 1 2.73373 8.20117 5.46745 -0.000341652 -0.00170505 -0.0017183 1.39695 
41 2 1.36686 6.83431 9.56804 -0.00326325 0.00405116 -0.00644091 -0.698477 
42 2 1.36686 9.56804 9.56804 -0.000765027 0.00401239 0.0029605 -0.698477 
43 2 1.36686 9.56804 6.83431 -0.00209018 0.00286904 -0.00463223 -0.698477 
44 2 1.36686 6.83431 6.83431 -0.00650322 0.00557818 0.00211663 -0.698477 
45 2 4.10059 6.83431 6.83431 0.00510727 -0.00374668 0.00519179 -0.698477 
46 2 4.10059 9.56804 6.83431 -0.000375372 -0.0026131 -0.00267811 -0.698477 
47 2 4.10059 9.56804 9.56804 0.00420608 0.0017615 0.00535956 -0.698477 
48 2 4.10059 6.83431 9.56804 5.85314e-05 0.00166121 0.00584625 -0.698477 
49 1 5.46745 0 0 0.00170451 -0.0011415 0.00116683 1.39695 
50 1 5.46745 2.73373 2.73373 0.000677467 5.88022e-05 0.000981566 1.39695 
51 1 8.20117 0 2.73373 -0.000455805 0.000914513 0.0016893 1.39695 
52 1 8.20117 2.73373 0 -0.00224968 -0.00168346 -0.000636442 1.39695 
53 2 6.83431 1.36686 4.10059 -0.00347072 0.00302513 -0.005719 -0.698477 
54 2 6.83431 4.10059 4.10059 0.00577074 0.00139385 0.000792499 -0.698477 
55 2 6.83431 4.10059 1.36686 -0.00559751 -0.00503991 -0.0027011 -0.698477 
56 2 6.83431 1.36686 1.36686 -0.00471605 -0.00523979 -0.00332345 -0.698477 
57 2 9.56804 1.36686 1.36686 0.00290469 -0.00263253 0.000490119 -0.698477 
58 2 9.56804 4.10059 1.36686 -0.00228302 0.00504327 -0.00189924 -0.698477 
59 2 9.56804 4.10059 4.10059 -0.0030838 -0.005442 0.00689604 -0.698477 
60 2 9.56804 1.36686 4.10059 0.00547997 -0.00658105 0.00380846 -0.698477 
61 1 5.46745 0 5.46745 0.00131861 0.000664019 -0.000401855 1.39695 
62 1 5.46745 2.73373 8.20117 -0.00029134 0.000265814 -0.00116444 1.39695 
63 1 8.20117 0 8.20117 0.000352164 0.000442817 0.00168679 1.39695 
64 1 8.20117 2.73373 5.46745 -0.00109537 0.000921853 -0.00201508 1.39695 
65 2 6.83431 1.36686 9.56804 0.00434255 0.00384445 0.00529289 -0.698477 
66 2 6.83431 4.10059 9.56804 -0.00153677 0.00161427 -0.00448656 -0.698477 
67 2 6.83431 4.10059 6.83431 0.000196208 0.00515151 -0.000303308 -0.698477 
68 2 6.83431 1.36686 6.83431 0.00286298 -0.0026458 -0.00329199 -0.698477 
69 2 9.56804 1.36686 6.83431 0.00533117 0.00122232 0.000467941 -0.698477 
70 2 9.56804 4.10059 6.83431 0.0023969 0.00504397 -0.00405074 -0.698477 
71 2 9.56804 4.10059 9.56804 0.000522324 -0.00429325 -0.00276085 -0.698477 
72 2 9.56804 1.36686 9.56804 0.0026485 -0.0062216 0.00159894 -0.698477 
73 1 5.46745 5.46745 0 0.0019488 -0.00134389 -7.68914e-06 1.39695 
74 1 5.46745 8.20117 2.73373 0.00106077 -0.0019757 0.0022672 1.39695 
75 1 8.20117 5.46745 2.73373 0.00102494 0.00136508 -0.00116913 1.39695 
76 1 8.20117 8.20117 0 -0.00196135 -3.87242e-05 0.00206785 1.39695 
77 2 6.83431 6.83431 4.10059 7.55357e-05 0.00461686 -0.00224114 -0.698477 
78 2 6.83431 9.56804 4.10059 -0.00278657 -0.00622286 -0.00163579 -0.698477 
79 2 6.83431 9.56804 1.36686 0.000834402 0.00244217 0.00349084 -0.698477 
80 2 6.83431 6.83431 1.36686 -0.00443272 0.00293554 -0.000225126 -0.698477 
81 2 9.56804 6.83431 1.36686 -0.00430936 -0.00131536 0.00272591 -0.698477 
82 2 9.56804 9.56804 1.36686 -0.00518003 0.00494605 -0.00366992 -0.698477 
83 2 9.56804 9.56804 4.10059 -0.00528887 -0.00359414 -0.00129366 -0.698477 
84 2 9.56804 6.83431 4.10059 0.00468761 -0.00226547 0.00503812 -0.698477 
85 1 5.46745 5.46745 5.46745 -0.00224741 0.00205362 -0.00108081 1.39695 
86 1 5.46745 8.20117 8.20117 0.00126472 -0.000551241 0.000298872 1.39695 
87 1 8.20117 5.46745 8.20117 0.00184518 0.000272997 0.000774425 1.39695 
88 1 8.20117 8.20117 5.46745 -0.000422711 -0.00148697 -0.00178645 1.39695 
89 2 6.83431 6.83431 9.56804 0.00164961 -0.0060321 -0.00650933 -0.698477 
90 2 6.83431 9.56804 9.56804 -0.00366646 0.00248256 -0.00621385 -0.698477 
91 2 6.83431 9.56804 6.83431 -0.00116019 -0.000857242 0.00349348 -0.698477 
92 2 6.83431 6.83431 6.83431 -0.000697358 0.00429912 -0.00101388 -0.698477 
93 2 9.56804 6.83431 6.83431 -0.00133703 0.00401994 -0.00285037 -0.698477 
94 2 9.56804 9.56804 6.83431 -0.00381348 0.000142179 0.00303809 -0.698477 
95 2 9.56804 9.56804 9.56804 -0.00595917 -0.00642285 0.00507301 -0.698477 
96 2 9.56804 6.83431 9.56804 1.3516e-05 0.000190656 -0.0053133 -0.698477 
ITEM: TIMESTEP
1000
ITEM: NUMBER OF ATOMS
96
ITEM: BOX BOUNDS pp pp pp
-1.7447826315731163e-02 1.0952347826315767e+01
-1.7447826315731163e-02 1.0952347826315767e+01
-1.7447826315731163e-02 1.0952347826315767e+01
ITEM: ATOMS id type x y z vx vy vz q 
1 1 0.07661 10.9492 10.9306 -0.000939364 0.000500923 0.000174504 1.37059 
2 1 10.9412 2.73757 2.72306 -0.000846128 3.87903e-05 -0.00256096 1.3571 
3 1 2.66987 10.8751 2.71619 8.19362e-05 0.000929785 -0.000270902 1.45466 
4 1 2.68625 2.79725 0.0390379 0.000652323 -0.0022715 -0.00270443 1.40352 
5 2 1.39331 1.37885 4.00611 -0.000157925 -0.00261005 -0.00398371 -0.687339 
6 2 1.45262 4.08919 4.22575 0.00430507 0.00353392 -0.000762396 -0.669176 
7 2 1.31756 4.08557 1.33888 0.00358445 -0.00197976 0.000815348 -0.722472 
8 2 1.5181 1.30682 1.42244 -0.0043876 0.00425857 -0.00591314 -0.688644 
9 2 4.08322 1.31544 1.33888 -0.00209812 -0.0039831 0.00427532 -0.663027 
10 2 3.9483 4.16602 1.32861 0.00212289 0.00527598 -0.0028748 -0.70012 
11 2 4.06672 4.06216 4.12379 -0.006687 0.0029314 0.00437186 -0.684202 
12 2 4.09219 1.19666 4.16197 0.00163025 -0.00807872 -0.00122325 -0.705217 
13 1 -0.00313193 0.021795 5.51309 0.000625664 0.00134649 -9.60637e-05 1.38935 
14 1 10.9401 2.71673 8.14305 0.000217147 -0.000876423 -0.000121529 1.39367 
15 1 2.70914 10.9507 8.21325 -0.000599909 -0.00123488 -0.000366508 1.40233 
16 1 2.77332 2.69811 5.41022 -0.00157077 0.000950967 0.00340787 1.39378 
17 2 1.37665 1.44916 9.6075 0.0035809 -0.000133564 -0.00217795 -0.687527 
18 2 1.37409 4.12302 9.52842 0.0040259 0.000159986 0.00822696 -0.700748 
19 2 1.34621 4.06402 6.80341 0.00214307 0.00624017 0.00544243 -0.687923 
20 2 1.28327 1.31532 6.85371 8.8761e-05 0.00216085 -0.000864667 -0.713945 
21 2 4.11274 1.39066 6.87544 -0.00867621 0.00295276 0.00623124 -0.68781 
22 2 4.18755 4.14678 6.77666 0.00246527 0.000656821 -0.00282883 -0.719391 
23 2 4.16048 4.04953 9.6153 0.000611207 -0.00481142 0.00657285 -0.735645 
24 2 4.1294 1.33949 9.58554 0.00479287 -0.00487045 -0.0020031 -0.692099 
25 1 -0.00245151 5.46309 0.0170073 -0.00243154 -0.00119697 -0.000632576 1.3705 
26 1 10.9315 8.21142 2.70386 0.0018454 0.00166707 0.000310192 1.3745 
27 1 2.72098 5.54811 2.72604 -0.000454544 -0.000937756 -0.000709122 1.3795 
28 1 2.69488 8.23026 10.8906 -0.000363315 0.00111165 0.00134026 1.36615 
29 2 1.17751 6.83218 4.05656 0.00326693 0.00789479 0.000572438 -0.694315 
30 2 1.3556 9.5782 4.06351 -0.00375753 0.00141527 0.0105231 -0.706722 
31 2 1.28753 9.67389 1.33699 -0.000320779 0.00380252 0.00297916 -0.733922 
32 2 1.31895 6.87756 1.3954 0.00646188 -0.00199923 -0.000747624 -0.718351 
33 2 4.06874 6.79528 1.32661 0.00388417 0.00439297 0.00116478 -0.704118 
34 2 3.97404 9.64716 1.20072 0.00460495 0.00209188 -0.00110322 -0.693589 
35 2 4.00578 9.67117 4.03614 0.00163091 0.00308737 0.00657465 -0.705539 
36 2 4.13679 6.79787 4.14005 0.00431001 -0.005162 0.000446213 -0.687045 
37 1 10.9443 5.48391 5.54365 0.00166453 0.00145485 0.000383332 1.3721 
38 1 10.9457 8.20869 8.1597 0.00157801 0.00175533 0.00112216 1.40383 
39 1 2.77772 5.37759 8.23723 -2.9319e-05 0.000732515 -0.00260607 1.40774 
40 1 2.7307 8.23087 5.51302 -0.000323504 -0.000452731 0.00057573 1.3717 
41 2 1.36809 6.79628 9.50452 0.00337349 0.00688278 -0.00604131 -0.664077 
42 2 1.35002 9.58691 9.44651 -0.0035075 0.0018764 0.00477786 -0.719081 
43 2 1.43702 9.57069 6.83767 0.00206537 0.000331095 0.00204722 -0.701168 
44 2 1.28646 6.8829 6.95786 -0.00352057 -0.00623805 -0.00124083 -0.679028 
45 2 3.93934 6.89371 6.847 -0.000202541 -0.00213327 0.00520409 -0.685501 
46 2 4.15408 9.57151 6.86835 -0.00367387 0.00241938 -0.00358964 -0.699352 
47 2 4.04777 9.56323 9.48564 3.20931e-05 -0.00921971 0.000464323 -0.696269 
48 2 3.98867 6.8011 9.48059 0.00260117 -0.000791925 0.00415879 -0.687592 
49 1 5.45625 0.00634859 10.8643 0.00112163 -0.000499893 -0.000648246 1.42252 
50 1 5.45011 2.7053 2.74554 0.000155157 4.98205e-05 -5.16798e-05 1.32696 
51 1 8.25316 -0.011184 2.71441 -0.0027911 0.000616814 -9.65184e-05 1.39874 
52 1 8.25331 2.7989 0.0105228 0.000318847 -0.000154625 -0.00277384 1.39939 
53 2 6.94553 1.3248 4.10625 -0.000742321 0.00300893 -0.00102405 -0.702723 
54 2 6.83424 4.07583 4.12754 0.00272302 -0.00615504 -0.00218198 -0.670097 
55 2 6.82566 4.15555 1.4391 -0.00103832 -0.00594252 0.00177922 -0.672335 
56 2 6.8463 1.39655 1.16751 -0.00284307 0.00348095 -0.00095447 -0.677042 
57 2 9.60584 1.37451 1.27671 0.00162641 -0.0040128 0.00359026 -0.698506 
58 2 9.53123 4.14995 1.36658 0.00241019 0.00308633 0.00112989 -0.725032 
59 2 9.53021 3.97487 4.17781 0.00351982 -0.00184711 -0.00395641 -0.695145 
60 2 9.65194 1.29868 4.09432 -0.00182919 0.00512608 0.00955088 -0.695375 
61 1 5.44913 10.916 5.42654 -0.00181629 -0.00218592 0.000233502 1.39423 
62 1 5.4763 2.75427 8.26155 -0.0011011 5.33899e-05 0.000279662 1.37845 
63 1 8.22912 10.9313 8.27947 -7.28871e-05 0.000286887 0.000856568 1.3988 
64 1 8.20007 2.64883 5.51063 0.00299723 0.00111956 0.000620479 1.41926 
65 2 6.87648 1.30484 9.44609 0.000340501 -0.0017602 0.00359046 -0.697836 
66 2 6.93037 4.06907 9.63348 -0.00383821 -0.000474965 -6.08528e-05 -0.704969 
67 2 6.86028 4.0889 6.84228 0.000635713 0.00391061 0.00667773 -0.706845 
68 2 6.94589 1.31135 6.75174 -0.00219796 -0.00225574 -0.00259397 -0.677306 
69 2 9.60893 1.26333 6.82622 0.00583743 0.00483586 0.00564556 -0.703696 
70 2 9.57378 4.05741 6.87917 -0.00171467 0.00281251 0.00125972 -0.703747 
71 2 9.48618 4.08043 9.58708 -0.00377817 -0.00467563 0.00135248 -0.696249 
72 2 9.73895 1.25416 9.59086 -0.00123881 -0.000362055 -0.00266766 -0.679826 
73 1 5.413 5.45503 0.00225112 -0.00155 -0.00130555 -0.00170569 1.3791 
74 1 5.4964 8.24065 2.65984 -0.000173304 -1.74605e-05 0.000839796 1.34664 
75 1 8.27784 5.46361 2.76611 -0.00105249 -0.000240004 -0.00119757 1.39131 
76 1 8.21582 8.25237 10.9024 0.00135204 6.19297e-05 0.00147907 1.40866 
77 2 6.91839 6.81196 4.06067 0.00209932 -0.00113318 0.00146244 -0.679362 
78 2 6.808 9.52353 4.05529 0.00170621 -0.00218084 0.00265428 -0.687286 
79 2 6.80631 9.69706 1.41789 0.000336409 0.00113534 -0.00195415 -0.670266 
80 2 6.74986 6.80147 1.2812 -0.00252841 -0.00184676 0.0020056 -0.675726 
81 2 9.52092 6.8166 1.31438 0.00320238 0.00292823 -0.00235575 -0.694886 
82 2 9.41311 9.55192 1.39558 -0.00294837 0.000905416 -0.00204372 -0.701429 
83 2 9.42903 9.52293 4.16109 0.00246353 -0.00670432 0.000690233 -0.67454 
84 2 9.55922 6.85253 4.17706 0.000741982 -0.00580839 0.00689005 -0.697645 
85 1 5.49108 5.42762 5.53304 -0.00188433 0.00143482 0.000292614 1.39533 
86 1 5.44278 8.2242 8.16863 -0.00125036 -0.000333235 6.73435e-05 1.39982 
87 1 8.21558 5.46549 8.23438 -0.000575225 -0.0017111 -0.0012228 1.39946 
88 1 8.1704 8.1915 5.45114 0.00301544 -0.00178525 0.000117624 1.4323 
89 2 6.75773 6.91689 9.44371 0.00741999 0.00453485 0.00457708 -0.694142 
90 2 6.84099 9.63793 9.80181 -0.00217879 0.00143377 -0.00258964 -0.715014 
91 2 6.79424 9.56106 6.82597 -0.000651788 -0.000637607 -0.00640745 -0.691502 
92 2 6.81697 6.87029 6.77719 0.00677693 0.00579018 -0.00350802 -0.709361 
93 2 9.52876 6.84118 6.929 -0.000505232 -0.00432854 -0.00325531 -0.704899 
94 2 9.53449 9.59569 6.77358 -0.00854038 0.0058749 0.000147154 -0.679569 
95 2 9.49126 9.51549 9.54572 0.00880554 -0.00241637 -0.0011495 -0.713087 
96 2 9.55113 6.83017 9.61271 -0.00187995 0.00288536 -0.00619187 -0.685596 
ITEM: TIMESTEP
2000
ITEM: NUMBER OF ATOMS
96
ITEM: BOX BOUNDS pp pp pp
-2.0041997044370596e-02 1.0954941997044379e+01
-2.0041997044370596e-02 1.0954941997044379e+01
-2.0041997044370596e-02 1.0954941997044379e+01
ITEM: ATOMS id type x y z vx vy vz q 
1 1 -0.00289507 -0.000359889 -0.0148378 -0.00131702 -0.000389277 0.000420571 1.34282 
2 1 0.0434921 2.70292 2.81193 -0.00153724 0.000946486 0.000235263 1.39211 
3 1 2.67899 10.8917 2.66518 -7.11565e-05 8.45706e-05 2.82746e-05 1.40428 
4 1 2.72146 2.8254 0.0624871 2.41312e-05 -0.00195048 -0.00138085 1.40048 
5 2 1.37116 1.3145 3.96139 0.00788913 0.00355978 -0.000806626 -0.702742 
6 2 1.34924 4.05249 4.2874 0.00752866 0.00304388 0.0042009 -0.681274 
7 2 1.44485 4.15615 1.47604 -0.00259281 -0.00299126 -0.00374985 -0.718686 
8 2 1.37252 1.32604 1.41987 0.00894039 0.00501464 -0.00185555 -0.688173 
9 2 4.08198 1.38556 1.42527 -0.00254217 8.9536e-05 0.00437364 -0.67144 
10 2 4.24065 4.09501 1.36304 -0.00698561 0.00316593 -0.00147086 -0.702608 
11 2 4.08618 3.85869 4.02515 -0.00495306 -0.000363495 0.000629013 -0.709896 
12 2 4.19359 1.27691 4.17085 -0.00229368 -0.00553157 -0.00381988 -0.695766 
13 1 10.9043 10.8992 5.40713 -0.000320788 -0.00132583 -0.000955818 1.40599 
14 1 0.0252029 2.74689 8.26219 -0.000102705 9.8357e-07 0.00119935 1.38919 
15 1 2.75074 0.0638893 8.09942 0.000337387 -1.79805e-05 -0.00074315 1.37492 
16 1 2.7949 2.69821 5.38617 -0.000703578 0.000774238 0.000874858 1.40979 
17 2 1.4101 1.4009 9.60518 -0.00188103 -0.00135357 0.00276848 -0.680157 
18 2 1.37581 4.08717 9.75011 -0.00215329 0.00444101 -0.00460429 -0.697233 
19 2 1.50852 4.06962 6.90794 -0.00281604 0.00546629 -0.000100989 -0.664233 
20 2 1.36096 1.39932 6.81253 -0.00506019 -0.00530406 -0.00585838 -0.688063 
21 2 4.03112 1.36801 6.949 -0.00281633 4.03899e-05 0.00354118 -0.691479 
22 2 4.07434 4.18915 6.86499 -0.00343219 -0.00174793 0.00124199 -0.709108 
23 2 4.1284 4.06858 9.71187 0.00295577 -0.00323465 0.00982307 -0.705401 
24 2 4.14489 1.31669 9.71956 -0.00204394 -0.00151319 0.00438424 -0.680301 
25 1 10.9472 5.49229 0.071034 -0.00158789 -0.00231907 -0.00123677 1.40489 
26 1 10.9392 8.25275 2.67049 -0.000249622 0.00214124 0.00198028 1.37997 
27 1 2.74342 5.52363 2.73051 -8.3723e-05 0.00147868 2.84233e-05 1.34654 
28 1 2.66198 8.18516 10.8455 -8.03304e-05 0.000198988 0.000669524 1.36067 
29 2 1.27831 6.77142 4.05107 0.00114607 0.00088887 0.00298047 -0.688134 
30 2 1.37408 9.52043 4.03516 0.00250145 0.000895113 -0.000675409 -0.693961 
31 2 1.30567 9.5607 1.2376 0.00194951 0.00661937 -0.00254366 -0.710103 
32 2 1.33888 6.89631 1.34195 0.00677496 -0.00504226 0.00128644 -0.699864 
33 2 4.12049 7.00427 1.32824 0.00372312 0.000894755 0.00393834 -0.703807 
34 2 4.09696 9.7105 1.38488 -0.00115492 0.000296382 -0.00454352 -0.692246 
35 2 4.10036 9.45394 4.08189 -0.000545491 0.00332342 -0.00404063 -0.683185 
36 2 4.20758 6.72806 4.1336 0.00419767 -0.00678805 -0.00535237 -0.724824 
37 1 10.8106 5.45383 5.46313 0.000443059 -0.000664811 -0.000364994 1.40804 
38 1 -0.00927649 8.15458 8.17239 0.000117384 -0.000749251 0.00102652 1.38984 
39 1 2.78248 5.37636 8.14848 -0.000408423 -0.000595719 0.000830059 1.38594 
40 1 2.70851 8.12043 5.47182 9.59869e-06 0.000613371 0.000678669 1.3711 
41 2 1.33458 6.86894 9.50214 0.00865803 -0.00396675 7.59894e-05 -0.697336 
42 2 1.32798 9.64212 9.54336 -0.00562012 -0.00293659 -0.00349931 -0.682505 
43 2 1.3114 9.60607 6.70624 0.0090924 0.00316815 0.00144834 -0.698573 
44 2 1.33994 6.74924 6.89591 0.00569795 0.00693621 -0.00527139 -0.694095 
45 2 4.11001 6.96855 6.78729 -0.00632521 -0.00171137 -0.000686516 -0.700115 
46 2 4.15315 9.65501 6.7415 0.000900368 -0.00110104 0.00547376 -0.65807 
47 2 4.13643 9.55421 9.55365 -0.000284159 -0.00322733 -0.0024781 -0.714193 
48 2 4.25725 6.77103 9.55254 -0.00268158 -0.00219327 0.00473938 -0.703083 
49 1 5.40919 10.9472 10.9317 0.000480093 0.000529435 0.000953742 1.41406 
50 1 5.50809 2.72351 2.70112 0.00146955 0.0010295 -0.000592453 1.43074 
51 1 8.20499 0.0275572 2.70399 0.000950801 0.000599573 -0.00154471 1.42555 
52 1 8.3456 2.7453 0.0459996 -0.00118894 -0.000252661 -0.000525034 1.3504 
53 2 6.91481 1.40223 4.11122 -0.00139427 -0.00176342 0.000634823 -0.729795 
54 2 6.80336 4.18257 4.04378 0.00231998 0.00549794 -0.00475032 -0.719513 
55 2 6.88497 4.19522 1.42025 0.00315633 -0.00115662 0.00325066 -0.698649 
56 2 6.80987 1.31765 1.49096 -0.000232687 -0.00462285 -0.00711549 -0.710267 
57 2 9.6431 1.41682 1.43793 -0.00814943 -0.0026107 0.00170249 -0.71733 
58 2 9.64683 4.10195 1.48047 0.00809588 0.00442844 0.00118525 -0.691986 
59 2 9.56005 4.12799 4.22933 -0.0063086 -0.000908072 -0.00642016 -0.714169 
60 2 9.66569 1.24426 4.16546 -0.0062102 0.00233562 -0.00415125 -0.714022 
61 1 5.5505 10.9546 5.32941 7.6504e-05 -0.0024566 0.00129244 1.39331 
62 1 5.49607 2.75087 8.30874 -0.000147627 0.000195744 -0.00104398 1.37892 
63 1 8.0662 10.9378 8.20139 0.000644939 -0.00184269 0.000287635 1.41406 
64 1 8.19909 2.63732 5.48019 -0.000732614 0.000893819 0.00102008 1.4018 
65 2 6.80252 1.32186 9.5089 -0.00050242 0.000277185 -0.000344973 -0.697208 
66 2 6.95411 4.10818 9.69883 0.00506803 0.00465535 -0.000235763 -0.695364 
67 2 6.80722 4.01819 6.89851 0.000719417 0.00613051 0.00213228 -0.667542 
68 2 6.85445 1.45405 6.79444 -0.000453829 0.000224619 -0.000544541 -0.686938 
69 2 9.42175 1.24413 6.89989 -0.00419285 3.20779e-05 -9.22382e-05 -0.658329 
70 2 9.60912 3.98637 6.93113 0.000550038 -0.00288031 -0.00234092 -0.685053 
71 2 9.67891 4.15554 9.65959 0.00082135 0.005494 -0.00416985 -0.679204 
72 2 9.59078 1.49633 9.5132 -0.00250123 0.00245406 0.00313045 -0.691154 
73 1 5.49543 5.50845 0.0396594 0.000690657 0.00016367 0.000124806 1.38836 
74 1 5.44914 8.23658 2.70937 -6.22065e-05 0.00150499 0.000135624 1.41548 
75 1 8.15757 5.47689 2.7972 -8.06502e-05 -0.00104915 0.000588425 1.39431 
76 1 8.2291 8.23251 10.9195 -0.00148591 0.000670396 0.000861564 1.37897 
77 2 6.81455 7.0074 4.12009 0.00529596 0.00189587 -0.00137059 -0.698769 
78 2 6.92528 9.68087 4.11648 0.00184174 0.0038445 0.00400335 -0.708513 
79 2 6.81351 9.62581 1.36908 0.0119329 0.00107283 -0.00326841 -0.668096 
80 2 6.82204 6.95175 1.39079 -0.00019607 0.0011307 0.00241495 -0.700299 
81 2 9.67057 6.79038 1.42789 -0.00327413 0.00165302 -7.86981e-05 -0.700217 
82 2 9.46849 9.66869 1.36258 0.00294165 0.00293363 0.00476309 -0.712771 
83 2 9.64912 9.64827 4.10664 0.00178147 -0.00342156 -0.00840498 -0.689623 
84 2 9.49504 6.82249 4.18521 -0.00145977 0.00312144 -0.00284373 -0.697799 
85 1 5.47049 5.46065 5.40661 0.00124419 -0.000144809 -3.33694e-05 1.39021 
86 1 5.42063 8.22981 8.27044 -0.000907447 -0.00127866 -0.00162287 1.40102 
87 1 8.16766 5.46542 8.21504 0.000151074 -0.000962519 -0.000164974 1.39481 
88 1 8.17137 8.18892 5.50147 -0.000742458 0.000363895 -0.00109549 1.3892 
89 2 6.81489 6.98693 9.53771 0.00163377 -0.00161941 0.000323649 -0.699781 
90 2 6.81556 9.65534 9.59878 0.00129615 0.00216975 0.00832063 -0.703845 
91 2 6.83496 9.5626 6.88098 -0.000760449 -0.00318491 0.000802191 -0.714231 
92 2 6.92032 6.57492 6.83718 0.00312666 -0.00097702 -0.0046191 -0.694984 
93 2 9.59616 6.703 6.87897 0.00236773 0.00428548 0.000960388 -0.713586 
94 2 9.5254 9.5156 6.82202 0.00121684 0.00166056 -0.00147693 -0.677078 
95 2 9.51006 9.46884 9.47484 0.00457066 -0.00180358 0.000168803 -0.680128 
96 2 9.6517 6.85748 9.67243 0.00641193 0.00418011 0.00197002 -0.680872 
ITEM: TIMESTEP
3000
ITEM: NUMBER OF ATOMS
96
ITEM: BOX BOUNDS pp pp pp
-2.3009276684273772e-02 1.0957909276684276e+01
-2.3009276684273772e-02 1.0957909276684276e+01
-2.3009276684273772e-02 1.0957909276684276e+01
ITEM: ATOMS id type x y z vx vy vz q 
1 1 0.0393992 10.9492 10.896 6.68114e-05 0.00274979 -0.00103887 1.39085 
2 1 0.0204008 2.68205 2.76989 -0.000335553 -0.000411232 0.00187122 1.38394 
3 1 2.66271 10.9408 2.60058 0.00025906 -0.000788456 0.00103259 1.42343 
4 1 2.68547 2.78217 0.0312303 -0.000623206 0.000571777 0.000715961 1.38821 
5 2 1.32388 1.36906 4.18499 -0.00468854 0.00132557 -0.00175655 -0.690711 
6 2 1.23964 4.04964 4.14593 -0.00374189 -0.00267797 0.00187797 -0.690299 
7 2 1.39422 4.09585 1.31366 -0.00765922 -0.00156875 0.00107814 -0.73987 
8 2 1.43777 1.18048 1.41342 0.0019366 0.000467898 -0.00350673 -0.733308 
9 2 4.11961 1.41746 1.31813 0.00163969 0.000400757 0.00468008 -0.680791 
10 2 4.14544 3.98183 1.40635 0.00209325 -0.00137435 -0.00430874 -0.691277 
11 2 4.10153 3.98095 4.08455 0.00236328 -0.0112011 0.000837071 -0.700541 
12 2 4.14667 1.23717 4.01142 0.00553592 0.005319 -8.38624e-06 -0.685969 
13 1 10.9325 10.9117 5.55122 0.000377174 -0.00102484 -0.00143073 1.39955 
14 1 -0.00102659 2.71183 8.22453 0.000118393 -0.000241336 0.00132336 1.38076 
15 1 2.7118 -0.0188517 8.22943 0.000664345 0.00102226 0.00119986 1.36565 
16 1 2.7591 2.6964 5.38585 0.000464978 0.000346614 -0.000949819 1.39351 
17 2 1.32953 1.45773 9.55812 0.0096886 -0.000889239 0.00787167 -0.707978 
18 2 1.33187 4.23394 9.50161 -0.00433376 0.00421365 -0.00802586 -0.701115 
19 2 1.34691 4.09664 6.72882 -0.00210464 -0.000433977 -0.00734634 -0.656193 
20 2 1.45268 1.41436 6.83674 -0.00139305 0.000741576 0.000124498 -0.685819 
21 2 4.21592 1.30117 6.79487 -0.00123203 0.00245411 -0.00138663 -0.689702 
22 2 4.0466 4.12917 6.86568 0.0014644 -0.000239794 -0.00323863 -0.694044 
23 2 4.02976 4.04073 9.54062 0.00170999 0.00179511 -0.00611992 -0.685901 
24 2 4.06676 1.35609 9.67633 -0.00661339 -0.00342177 0.00610154 -0.701599 
25 1 0.066843 5.45632 -0.00235573 0.0024337 0.000146571 -0.000920233 1.39341 
26 1 10.9136 8.1887 2.71631 -0.0016998 0.00123636 0.000811805 1.41198 
27 1 2.7225 5.52593 2.78218 0.00110099 0.00241846 0.00173088 1.37955 
28 1 2.68458 8.17604 10.859 0.00040667 0.000717441 -0.00138348 1.37292 
29 2 1.47474 6.84609 4.0709 -0.00275912 0.00109993 0.00631858 -0.69673 
30 2 1.42864 9.57883 4.12983 0.00107893 -0.0121324 -0.003061 -0.671594 
31 2 1.4176 9.62058 1.27784 -0.00358416 -0.00459321 -0.00764041 -0.690763 
32 2 1.34538 6.94575 1.24088 0.0037236 0.00704231 -0.00328581 -0.69737 
33 2 3.99964 6.75783 1.4091 0.00158883 -0.000477083 0.00208183 -0.696915 
34 2 4.09278 9.62873 1.37766 -0.00115768 -0.000522957 -0.000226033 -0.679904 
35 2 4.1706 9.46404 3.9592 0.000600366 0.000231313 -0.00811469 -0.669573 
36 2 4.09591 6.82656 4.04589 -0.00319986 -0.000461358 -4.79033e-05 -0.677901 
37 1 10.9309 5.4249 5.52636 0.00209159 -0.00208027 -0.000445829 1.40542 
38 1 10.929 8.16235 8.1402 0.00075182 -0.00248489 -0.00159198 1.42022 
39 1 2.73135 5.43674 8.19629 -0.000401087 -0.00106154 0.00160455 1.39613 
40 1 2.69341 8.19008 5.45754 3.29064e-05 -0.00173433 -0.000911242 1.40341 
41 2 1.23895 6.84216 9.513 -0.00167191 -0.00146018 0.000687897 -0.705926 
42 2 1.44751 9.62119 9.4393 -0.00220362 -0.00307781 -0.00802519 -0.723083 
43 2 1.18473 9.56526 6.69364 0.000393093 -0.000737645 -0.00367815 -0.703489 
44 2 1.34513 6.74035 6.73602 -0.00927015 0.000178136 0.00612992 -0.710804 
45 2 4.15609 6.89338 6.84221 -0.0011746 0.00594531 0.00113862 -0.730321 
46 2 3.98375 9.63644 6.77846 0.00684094 -0.00596064 0.000863648 -0.704105 
47 2 4.15798 9.50305 9.58349 -0.00238647 0.00562588 -0.00690278 -0.692344 
48 2 4.13291 6.71493 9.62896 -8.11037e-05 -0.00180448 -0.00211553 -0.721887 
49 1 5.43253 0.0839821 10.918 -0.00184256 0.00154376 0.000584452 1.41692 
50 1 5.48587 2.72158 2.69575 0.00144073 -0.000280337 -0.00195588 1.4202 
51 1 8.2967 10.9256 2.67558 0.00194207 0.00101738 -0.000731798 1.37879 
52 1 8.25814 2.70787 0.0611364 0.000506786 -0.000106835 0.00124681 1.37202 
53 2 6.75766 1.48256 4.14785 0.00398388 -0.00141259 -0.00455481 -0.680654 
54 2 6.84503 4.20175 4.26927 -0.000743645 -0.00053035 -0.000177773 -0.696662 
55 2 6.90572 4.08958 1.35659 -0.000126458 0.00386666 0.000198258 -0.669211 
56 2 6.81482 1.39559 1.38399 -0.00315032 -0.000253588 0.000493805 -0.70023 
57 2 9.67777 1.46994 1.32305 0.00362352 -0.000760322 -0.00768955 -0.702712 
58 2 9.58058 4.12264 1.40625 0.00674344 0.000723801 0.000497182 -0.67444 
59 2 9.61362 3.95647 4.17587 -0.00257126 0.00806872 0.0018543 -0.707092 
60 2 9.5225 1.22475 4.02204 0.00263704 -0.00338718 -0.000285667 -0.67441 
61 1 5.43771 0.0169861 5.4627 -0.000183968 0.000187408 0.00083261 1.41176 
62 1 5.49301 2.70305 8.26876 0.000412343 0.000148 -0.00127852 1.35925 
63 1 8.27636 0.0192617 8.24516 -0.00011631 -0.00266783 0.000751159 1.35714 
64 1 8.1833 2.71515 5.48649 -0.00187603 0.00114482 0.000101997 1.38924 
65 2 6.76836 1.32904 9.70244 -0.00400169 -0.00508997 -0.00145553 -0.72696 
66 2 6.81913 4.17961 9.63915 0.00367774 -0.00457767 -0.00354426 -0.690653 
67 2 6.84376 4.01532 6.9268 -0.00814012 0.000257226 -0.00059352 -0.723552 
68 2 6.83323 1.16862 6.78761 -0.000254695 -0.00310198 -0.0010861 -0.677763 
69 2 9.47261 1.36841 6.73812 -0.00630084 0.000193252 0.00157618 -0.724782 
70 2 9.72491 4.21303 6.92339 0.00463308 -0.00179369 0.00178243 -0.713066 
71 2 9.6585 4.071 9.68881 0.000513358 -0.000606451 -0.0013478 -0.686588 
72 2 9.71766 1.26209 9.55375 -0.00172833 -0.000409049 -0.00208859 -0.733889 
73 1 5.42286 5.49708 -0.0184957 0.00144444 0.00130265 0.00185027 1.38349 
74 1 5.4163 8.25503 2.69455 0.000263081 0.00124432 0.000762077 1.41808 
75 1 8.3043 5.51273 2.81786 -0.000207739 -0.000306113 0.00116194 1.34323 
76 1 8.17455 8.24128 10.8724 -0.000421162 0.00137529 -0.000211152 1.39457 
77 2 6.92281 6.92605 4.10423 -0.00167284 -0.00110635 0.00126946 -0.684068 
78 2 6.79563 9.54446 4.07629 -0.00191432 0.000751707 0.000901639 -0.691131 
79 2 6.82401 9.60364 1.28993 0.00208687 0.00155762 0.00402893 -0.674051 
80 2 6.78354 6.90052 1.24269 -0.00217589 -0.00305769 -0.00215069 -0.675061 
81 2 9.6282 6.92203 1.51844 -0.00416016 -0.00314689 0.00411534 -0.689923 
82 2 9.67027 9.68926 1.26844 -0.0027376 0.000581128 0.00593779 -0.692225 
83 2 9.53712 9.59239 3.93858 0.00384823 -0.00137057 -0.0048018 -0.68549 
84 2 9.73998 6.93948 4.09866 -0.00360477 0.00365001 -0.00290917 -0.700302 
85 1 5.51013 5.4413 5.57956 -0.000112868 0.000999158 -0.000302562 1.38995 
86 1 5.41466 8.17151 8.11397 -0.0013318 -0.00278417 -0.000109389 1.39454 
87 1 8.21132 5.46505 8.30013 -0.000550939 0.000691796 0.00150407 1.35168 
88 1 8.08529 8.2504 5.49039 0.000301238 0.00121903 -0.00189916 1.40699 
89 2 6.86543 6.86152 9.48752 -0.00412441 -0.00318536 -0.00271613 -0.690056 
90 2 6.8663 9.62144 9.6007 -0.00697951 0.00395578 0.0042725 -0.661361 
91 2 6.8263 9.59605 6.95296 0.0020779 -0.00277547 0.000668252 -0.683958 
92 2 6.74662 6.8847 6.71623 -0.0015704 -0.00198209 0.000397518 -0.722291 
93 2 9.50068 7.04762 6.84939 -0.00368854 -0.00435441 -0.00179385 -0.692304 
94 2 9.64924 9.5761 6.78517 0.00055783 9.4201e-05 0.00788452 -0.694332 
95 2 9.67573 9.39888 9.5488 0.000298932 -0.00473262 -0.00200037 -0.695496 
96 2 9.56614 6.85838 9.67418 -0.00352127 0.00412766 0.00794731 -0.674192 
ITEM: TIMESTEP
4000
ITEM: NUMBER OF ATOMS
96
ITEM: BOX BOUNDS pp pp pp
-1.9579186220460620e-02 1.0954479186220468e+01
-1.9579186220460620e-02 1.0954479186220468e+01
-1.9579186220460620e-02 1.0954479186220468e+01
ITEM: ATOMS id type x y z vx vy vz q 
1 1 0.011851 10.9258 0.00679249 0.000109294 0.000356506 -0.00175738 1.38465 
2 1 10.9476 2.71369 2.72848 0.00108488 -0.000795245 -0.00100712 1.37093 
3 1 2.75798 10.9394 2.60802 -0.00150286 0.000450675 -0.00121208 1.42216 
4 1 2.71511 2.69219 0.0341469 -0.0018977 0.00033218 -0.00072947 1.38995 
5 2 1.37226 1.34604 3.96872 0.00238069 -0.00721088 -0.00287285 -0.670237 