ITEM: TIMESTEP
0
ITEM: NUMBER OF ATOMS
96
ITEM: BOX BOUNDS pp pp pp
0.0000000000000000e+00 1.0934900000000001e+01
0.0000000000000000e+00 1.0934900000000001e+01
0.0000000000000000e+00 1.0934900000000001e+01
ITEM: ATOMS id type xs ys zs
1 1 0 0 0
2 1 0 0.25 0.25
3 1 0.25 0 0.25
4 1 0.25 0.25 0
5 2 0.125 0.125 0.375
6 2 0.125 0.375 0.375
7 2 0.125 0.375 0.125
8 2 0.125 0.125 0.125
9 2 0.375 0.125 0.125
10 2 0.375 0.375 0.125
11 2 0.375 0.375 0.375
12 2 0.375 0.125 0.375
13 1 0 0 0.5
14 1 0 0.25 0.75
15 1 0.25 0 0.75
16 1 0.25 0.25 0.5
17 2 0.125 0.125 0.875
18 2 0.125 0.375 0.875
19 2 0.125 0.375 0.625
20 2 0.125 0.125 0.625
21 2 0.375 0.125 0.625
22 2 0.375 0.375 0.625
23 2 0.375 0.375 0.875
24 2 0.375 0.125 0.875
25 1 0 0.5 0
26 1 0 0.75 0.25
27 1 0.25 0.5 0.25
28 1 0.25 0.75 0
29 2 0.125 0.625 0.375
30 2 0.125 0.875 0.375
31 2 0.125 0.875 0.125
32 2 0.125 0.625 0.125
33 2 0.375 0.625 0.125
34 2 0.375 0.875 0.125
35 2 0.375 0.875 0.375
36 2 0.375 0.625 0.375
37 1 0 0.5 0.5
38 1 0 0.75 0.75
39 1 0.25 0.5 0.75
40 1 0.25 0.75 0.5
41 2 0.125 0.625 0.875
42 2 0.125 0.875 0.875
43 2 0.125 0.875 0.625
44 2 0.125 0.625 0.625
45 2 0.375 0.625 0.625
46 2 0.375 0.875 0.625
47 2 0.375 0.875 0.875
48 2 0.375 0.625 0.875
49 1 0.5 0 0
50 1 0.5 0.25 0.25
51 1 0.75 0 0.25
52 1 0.75 0.25 0
53 2 0.625 0.125 0.375
54 2 0.625 0.375 0.375
55 2 0.625 0.375 0.125
56 2 0.625 0.125 0.125
57 2 0.875 0.125 0.125
58 2 0.875 0.375 0.125
59 2 0.875 0.375 0.375
60 2 0.875 0.125 0.375
61 1 0.5 0 0.5
62 1 0.5 0.25 0.75
63 1 0.75 0 0.75
64 1 0.75 0.25 0.5
65 2 0.625 0.125 0.875
66 2 0.625 0.375 0.875
67 2 0.625 0.375 0.625
68 2 0.625 0.125 0.625
69 2 0.875 0.125 0.625
70 2 0.875 0.375 0.625
71 2 0.875 0.375 0.875
72 2 0.875 0.125 0.875
73 1 0.5 0.5 0
74 1 0.5 0.75 0.25
75 1 0.75 0.5 0.25
76 1 0.75 0.75 0
77 2 0.625 0.625 0.375
78 2 0.625 0.875 0.375
79 2 0.625 0.875 0.125
80 2 0.625 0.625 0.125
81 2 0.875 0.625 0.125
82 2 0.875 0.875 0.125
83 2 0.875 0.875 0.375
84 2 0.875 0.625 0.375
85 1 0.5 0.5 0.5
86 1 0.5 0.75 0.75
87 1 0.75 0.5 0.75
88 1 0.75 0.75 0.5
89 2 0.625 0.625 0.875
90 2 0.625 0.875 0.875
91 2 0.625 0.875 0.625
92 2 0.625 0.625 0.625
93 2 0.875 0.625 0.625
94 2 0.875 0.875 0.625
95 2 0.875 0.875 0.875
96 2 0.875 0.625 0.875
ITEM: TIMESTEP
1000
ITEM: NUMBER OF ATOMS
96
ITEM: BOX BOUNDS pp pp pp
-1.7447826315731163e-02 1.0952347826315767e+01
-1.7447826315731163e-02 1.0952347826315767e+01
-1.7447826315731163e-02 1.0952347826315767e+01
ITEM: ATOMS id type xs ys zs
1 1 0.00857426 0.999712 0.998015
2 1 0.998981 0.251146 0.249823
3 1 0.244975 0.992961 0.249197
4 1 0.246467 0.256586 0.00514921
5 2 0.128604 0.127286 0.366785
6 2 0.134011 0.374358 0.386807
7 2 0.121698 0.374029 0.123642
8 2 0.13998 0.12072 0.13126
9 2 0.373815 0.121505 0.123642
10 2 0.361515 0.381363 0.122705
11 2 0.372311 0.371895 0.377513
12 2 0.374632 0.110678 0.380993
13 1 0.00130503 0.00357735 0.50416
14 1 0.998882 0.249246 0.743906
15 1 0.248554 0.999846 0.750306
16 1 0.254404 0.247549 0.494783
17 2 0.127085 0.133695 0.877404
18 2 0.126852 0.377442 0.870196
19 2 0.12431 0.372064 0.621786
20 2 0.118573 0.121494 0.626371
21 2 0.376505 0.128362 0.628352
22 2 0.383325 0.379608 0.619347
23 2 0.380857 0.370743 0.878116
24 2 0.378024 0.123698 0.875402
25 1 0.00136706 0.499603 0.00314091
26 1 0.998101 0.750139 0.248072
27 1 0.249633 0.507353 0.250095
28 1 0.247255 0.751856 0.994371
29 2 0.108932 0.624408 0.371384
30 2 0.125166 0.874734 0.372017
31 2 0.118961 0.883457 0.12347
32 2 0.121826 0.628545 0.128794
33 2 0.372494 0.621044 0.122524
34 2 0.363862 0.88102 0.111048
35 2 0.366755 0.883209 0.369523
36 2 0.378698 0.62128 0.378995
37 1 0.999266 0.5015 0.506946
38 1 0.999398 0.74989 0.745424
39 1 0.254805 0.491809 0.752491
40 1 0.25052 0.751912 0.504154
41 2 0.126304 0.621135 0.868017
42 2 0.124657 0.875527 0.862728
43 2 0.132588 0.874049 0.624908
44 2 0.118864 0.629032 0.635865
45 2 0.360699 0.630017 0.625759
46 2 0.380274 0.874123 0.627705
47 2 0.370583 0.873369 0.866296
48 2 0.365195 0.621574 0.865835
49 1 0.498979 0.00216927 0.991976
50 1 0.49842 0.248204 0.251872
51 1 0.753944 0.000571003 0.249035
52 1 0.753957 0.256736 0.00254978
53 2 0.634741 0.122359 0.375914
54 2 0.624596 0.373141 0.377855
55 2 0.623814 0.380408 0.132778
56 2 0.625695 0.128899 0.10802
57 2 0.877253 0.12689 0.117975
58 2 0.870452 0.379898 0.126167
59 2 0.870359 0.363937 0.382437
60 2 0.881456 0.119977 0.374827
61 1 0.49833 0.996686 0.496271
62 1 0.500807 0.252668 0.754709
63 1 0.751752 0.99808 0.756342
64 1 0.749104 0.243056 0.503936
65 2 0.628446 0.120539 0.862691
66 2 0.633359 0.372524 0.879773
67 2 0.626969 0.374332 0.625328
68 2 0.634774 0.121132 0.617075
69 2 0.877535 0.116755 0.623865
70 2 0.874331 0.371462 0.628692
71 2 0.866345 0.37356 0.875543
72 2 0.889387 0.115919 0.875887
73 1 0.495036 0.498868 0.00179574
74 1 0.502639 0.752804 0.24406
75 1 0.756193 0.49965 0.253747
76 1 0.75054 0.753872 0.995443
77 2 0.632267 0.622565 0.371759
78 2 0.622204 0.86975 0.371268
79 2 0.62205 0.885569 0.130845
80 2 0.616904 0.621608 0.118384
81 2 0.869512 0.622988 0.121409
82 2 0.859684 0.872338 0.128811
83 2 0.861135 0.869695 0.380913
84 2 0.873004 0.626263 0.382369
85 1 0.502154 0.496369 0.50598
86 1 0.497751 0.751304 0.746238
87 1 0.750518 0.499822 0.752232
88 1 0.7464 0.748323 0.498513
89 2 0.617621 0.63213 0.862473
90 2 0.625211 0.880178 0.895118
91 2 0.620949 0.873171 0.623842
92 2 0.623021 0.627882 0.619395
93 2 0.870226 0.625229 0.633234
94 2 0.870749 0.876328 0.619066
95 2 0.866808 0.869017 0.871773
96 2 0.872266 0.624225 0.87788
ITEM: TIMESTEP
2000
ITEM: NUMBER OF ATOMS
96
ITEM: BOX BOUNDS pp pp pp
-2.0041997044370596e-02 1.0954941997044379e+01
-2.0041997044370596e-02 1.0954941997044379e+01
-2.0041997044370596e-02 1.0954941997044379e+01
ITEM: ATOMS id type xs ys zs
1 1 0.00156236 0.00179336 0.000474187
2 1 0.00578899 0.248106 0.258039
3 1 0.245925 0.994239 0.244668
4 1 0.249795 0.259266 0.00751975
5 2 0.126761 0.121598 0.362773
6 2 0.124764 0.371074 0.392479
7 2 0.133476 0.380519 0.136317
8 2 0.126885 0.12265 0.1312
9 2 0.373761 0.128073 0.131692
10 2 0.388218 0.374949 0.126022
11 2 0.374144 0.353416 0.368583
12 2 0.38393 0.118173 0.381859
13 1 0.995382 0.994919 0.494503
14 1 0.00412255 0.252112 0.754647
15 1 0.252464 0.00764751 0.739815
16 1 0.256487 0.247677 0.492594
17 2 0.13031 0.129471 0.877015
18 2 0.127185 0.374234 0.89022
19 2 0.139277 0.372635 0.631252
20 2 0.125831 0.129327 0.622559
21 2 0.369127 0.126474 0.634993
22 2 0.373065 0.383526 0.627339
23 2 0.37799 0.37254 0.886735
24 2 0.379494 0.121798 0.887436
25 1 0.999291 0.502263 0.00829851
26 1 0.998563 0.753787 0.245152
27 1 0.251797 0.505119 0.25062
28 1 0.244376 0.747628 0.990032
29 2 0.118301 0.618813 0.370945
30 2 0.127027 0.869292 0.369495
31 2 0.120794 0.872962 0.114592
32 2 0.12382 0.630192 0.1241
33 2 0.37727 0.640029 0.12285
34 2 0.375126 0.886611 0.128011
35 2 0.375436 0.863234 0.373753
36 2 0.385205 0.614862 0.378464
37 1 0.986845 0.498759 0.499606
38 1 0.000980913 0.744842 0.746464
39 1 0.255355 0.4917 0.744285
40 1 0.248616 0.74173 0.500399
41 2 0.123428 0.627699 0.867626
42 2 0.122826 0.88038 0.871381
43 2 0.121316 0.877096 0.612874
44 2 0.123917 0.616792 0.630156
45 2 0.376315 0.636775 0.620259
46 2 0.380246 0.881555 0.616086
47 2 0.378722 0.872371 0.872319
48 2 0.389731 0.618777 0.872218
49 1 0.494692 0.999299 0.997884
50 1 0.503703 0.249982 0.247942
51 1 0.749434 0.00433707 0.248204
52 1 0.762246 0.251968 0.00601747
53 2 0.631878 0.129592 0.376425
54 2 0.621723 0.382927 0.370281
55 2 0.62916 0.38408 0.131234
56 2 0.622316 0.121885 0.137677
57 2 0.880469 0.130921 0.132845
58 2 0.88081 0.375581 0.136721
59 2 0.872903 0.377953 0.387187
60 2 0.882528 0.115198 0.381368
61 1 0.507567 0.999965 0.487422
62 1 0.502608 0.252475 0.758888
63 1 0.736788 0.998438 0.749107
64 1 0.748897 0.242129 0.501161
65 2 0.621647 0.122269 0.868242
66 2 0.635459 0.376148 0.885547
67 2 0.622075 0.367949 0.630393
68 2 0.626379 0.134314 0.62091
69 2 0.860301 0.115187 0.630518
70 2 0.877373 0.365049 0.633365
71 2 0.883733 0.380463 0.881972
72 2 0.875702 0.138167 0.868634
73 1 0.502549 0.503736 0.00543977
74 1 0.498332 0.752313 0.248694
75 1 0.745114 0.50086 0.256697
76 1 0.751632 0.751942 0.996768
77 2 0.622743 0.640314 0.377234
78 2 0.632832 0.883911 0.376905
79 2 0.622648 0.878894 0.126571
80 2 0.623425 0.635244 0.12855
81 2 0.882973 0.62054 0.131931
82 2 0.86456 0.882802 0.125979
83 2 0.881019 0.880941 0.376008
84 2 0.866979 0.623466 0.383167
85 1 0.500277 0.499381 0.494456
86 1 0.495734 0.751696 0.755398
87 1 0.746033 0.499815 0.750351
88 1 0.746371 0.74797 0.503099
89 2 0.622773 0.63845 0.870867
90 2 0.622835 0.881585 0.876432
91 2 0.624602 0.873135 0.628795
92 2 0.63238 0.600908 0.624804
93 2 0.876193 0.612579 0.628613
94 2 0.869745 0.868853 0.623423
95 2 0.868348 0.864592 0.865139
96 2 0.881254 0.626654 0.883143
ITEM: TIMESTEP
3000
ITEM: NUMBER OF ATOMS
96
ITEM: BOX BOUNDS pp pp pp
-2.3009276684273772e-02 1.0957909276684276e+01
-2.3009276684273772e-02 1.0957909276684276e+01
-2.3009276684273772e-02 1.0957909276684276e+01
ITEM: ATOMS id type xs ys zs
1 1 0.00568336 0.999211 0.994363
2 1 0.00395322 0.246342 0.254341
3 1 0.244581 0.998442 0.238922
4 1 0.246653 0.25546 0.00493944
5 2 0.122657 0.126772 0.38321
6 2 0.114986 0.370884 0.379653
7 2 0.129062 0.375093 0.121726
8 2 0.133029 0.109598 0.130811
9 2 0.377256 0.131179 0.122133
10 2 0.379609 0.364709 0.130168
11 2 0.37561 0.364629 0.374063
12 2 0.37972 0.114761 0.367404
13 1 0.99769 0.995795 0.507629
14 1 0.0020019 0.249054 0.751079
15 1 0.249051 0.000378617 0.751525
16 1 0.253358 0.247648 0.492569
17 2 0.123172 0.134846 0.872525
18 2 0.123385 0.387668 0.867379
19 2 0.124755 0.375164 0.614869
20 2 0.134386 0.130897 0.624697
21 2 0.386027 0.120589 0.620884
22 2 0.370608 0.378127 0.627333
23 2 0.369074 0.370072 0.870932
24 2 0.372443 0.125591 0.883291
25 1 0.00818258 0.498986 0.00188086
26 1 0.995965 0.747816 0.249462
27 1 0.250025 0.505325 0.255461
28 1 0.246572 0.746663 0.990995
29 2 0.136396 0.625549 0.37282
30 2 0.132198 0.874412 0.378187
31 2 0.131192 0.878213 0.118464
32 2 0.124616 0.634625 0.115099
33 2 0.366331 0.617511 0.130418
34 2 0.374813 0.878955 0.127555
35 2 0.3819 0.863958 0.362649
36 2 0.375098 0.62377 0.370543
37 1 0.997538 0.496125 0.505365
38 1 0.997363 0.745417 0.743399
39 1 0.250832 0.497203 0.748508
40 1 0.247377 0.747942 0.499097
41 2 0.114923 0.62519 0.868416
42 2 0.133916 0.878269 0.861705
43 2 0.109985 0.873176 0.611666
44 2 0.124593 0.615919 0.615525
45 2 0.380578 0.629856 0.625196
46 2 0.364884 0.879658 0.61939
47 2 0.38075 0.86751 0.874836
48 2 0.378468 0.613604 0.878977
49 1 0.49682 0.00974339 0.99637
50 1 0.501677 0.249942 0.24759
51 1 0.757651 0.997059 0.245752
52 1 0.75414 0.248693 0.0076629
53 2 0.617496 0.137107 0.379828
54 2 0.625452 0.384736 0.390885
55 2 0.630979 0.374522 0.125636
56 2 0.622701 0.129187 0.128131
57 2 0.883422 0.135959 0.122581
58 2 0.87457 0.377532 0.130159
59 2 0.877579 0.362399 0.382379
60 2 0.869282 0.11363 0.36837
61 1 0.497291 0.00364226 0.499567
62 1 0.502327 0.248254 0.755107
63 1 0.755799 0.00384949 0.752958
64 1 0.747325 0.249356 0.501734
65 2 0.61847 0.123127 0.885668
66 2 0.623093 0.38272 0.879904
67 2 0.625337 0.367759 0.632898
68 2 0.624378 0.108518 0.620223
69 2 0.864739 0.126712 0.615716
70 2 0.887714 0.385764 0.632588
71 2 0.881666 0.37283 0.884427
72 2 0.887054 0.11703 0.872127
73 1 0.495939 0.502698 0.000411041
74 1 0.495342 0.753856 0.24748
75 1 0.758344 0.504123 0.25871
76 1 0.746528 0.752604 0.992214
77 2 0.632535 0.63283 0.375856
78 2 0.620954 0.871281 0.373311
79 2 0.623538 0.876671 0.119565
80 2 0.619853 0.630506 0.115264
81 2 0.878908 0.632464 0.140376
82 2 0.882738 0.884468 0.117609
83 2 0.870613 0.875646 0.36077
84 2 0.889087 0.634053 0.375348
85 1 0.503887 0.497619 0.51021
86 1 0.495192 0.746251 0.74101
87 1 0.749876 0.499782 0.757964
88 1 0.738399 0.753435 0.502089
89 2 0.62731 0.626954 0.866096
90 2 0.627389 0.878292 0.876403
91 2 0.623747 0.875979 0.635281
92 2 0.61649 0.629065 0.613723
93 2 0.867294 0.643901 0.625849
94 2 0.880823 0.874163 0.620001
95 2 0.883236 0.858024 0.871677
96 2 0.873256 0.626668 0.883094
ITEM: TIMESTEP
4000
ITEM: NUMBER OF ATOMS
96
ITEM: BOX BOUNDS pp pp pp
-1.9579186220460620e-02 1.0954479186220468e+01
-1.9579186220460620e-02 1.0954479186220468e+01
-1.9579186220460620e-02 1.0954479186220468e+01
ITEM: ATOMS id type xs ys zs
1 1 0.00286404 0.997382 0.00240309
2 1 0.999375 0.249066 0.250414
3 1 0.253102 0.998627 0.239438
4 1 0.249196 0.247108 0.00489574
5 2 0.12683 0.124441 0.36343
6 2 0.115707 0.378984 0.393907
7 2 0.135561 0.38207 0.130174
8 2 0.127819 0.122253 0.115195
9 2 0.368444 0.120741 0.12476
10 2 0.375654 0.374244 0.122249
11 2 0.371022 0.381418 0.373846
12 2 0.36134 0.115986 0.367787
13 1 0.995457 0.993548 0.496761
14 1 0.999081 0.248877 0.75402
15 1 0.254486 0.00103039 0.74853
16 1 0.249147 0.252556 0.499646
17 2 0.13047 0.126728 0.870436
18 2 0.125472 0.377741 0.87
19 2 0.117829 0.377273 0.623672
20 2 0.127466 0.121789 0.629262
21 2 0.378808 0.131345 0.62119
22 2 0.375026 0.378279 0.625085
23 2 0.363833 0.36599 0.860376
24 2 0.387718 0.125201 0.878041
25 1 0.00561717 0.501736 0.00344625
26 1 0.997287 0.748684 0.253265
27 1 0.247499 0.49778 0.257378
28 1 0.252183 0.746291 0.997498
29 2 0.126168 0.625044 0.375011
30 2 0.121938 0.873225 0.370936
31 2 0.125198 0.867648 0.130705
32 2 0.116246 0.614786 0.119787
33 2 0.364861 0.618646 0.131499
34 2 0.38783 0.87998 0.128998
35 2 0.373227 0.870268 0.376641
36 2 0.375697 0.620794 0.375762
37 1 0.99725 0.50402 0.493027
38 1 0.997248 0.748826 0.749588
39 1 0.249267 0.499156 0.74356
40 1 0.253423 0.757844 0.496312
41 2 0.121992 0.630121 0.870511
42 2 0.131562 0.883912 0.877292
43 2 0.110097 0.868342 0.620556
44 2 0.125416 0.62586 0.619114
45 2 0.382214 0.63268 0.634126
46 2 0.364138 0.885317 0.625267
47 2 0.3852 0.863819 0.870112
48 2 0.361933 0.623755 0.874916
49 1 0.500669 0.00501518 0.00300555
50 1 0.499415 0.2516 0.247528
51 1 0.751658 0.993615 0.247695
52 1 0.754289 0.253524 0.0100652
53 2 0.615898 0.126427 0.383878
54 2 0.625094 0.373249 0.371386
55 2 0.622867 0.372508 0.134133
56 2 0.633738 0.116597 0.123716
57 2 0.877071 0.129404 0.131813
58 2 0.871509 0.388097 0.130069
59 2 0.886566 0.366184 0.376222
60 2 0.870534 0.12192 0.37358
61 1 0.502839 0.999222 0.495777
62 1 0.502567 0.250236 0.754785
63 1 0.747471 0.00851501 0.75135
64 1 0.750862 0.247354 0.502608
65 2 0.624158 0.126259 0.886521
66 2 0.622731 0.381174 0.883161
67 2 0.635095 0.373013 0.621672
68 2 0.624526 0.126869 0.629226
69 2 0.871623 0.131522 0.62105
70 2 0.875435 0.388538 0.626285
71 2 0.876982 0.367601 0.872935
72 2 0.875858 0.123037 0.889663
73 1 0.499396 0.503821 0.00167677
74 1 0.498825 0.743609 0.242667
75 1 0.745077 0.50069 0.254908
76 1 0.754385 0.750957 0.993954
77 2 0.622882 0.620596 0.380363
78 2 0.623977 0.867578 0.374734
79 2 0.63085 0.879366 0.118711
80 2 0.623318 0.627544 0.12522
81 2 0.872869 0.635316 0.125881
82 2 0.873469 0.871744 0.118236
83 2 0.873599 0.862788 0.381941
84 2 0.865726 0.621674 0.387401
85 1 0.504042 0.496641 0.501264
86 1 0.503227 0.755435 0.744601
87 1 0.746055 0.494762 0.748094
88 1 0.746008 0.754246 0.505475
89 2 0.616714 0.627572 0.875275
90 2 0.629788 0.877045 0.869419
91 2 0.617181 0.87326 0.624383
92 2 0.626859 0.615564 0.623654
93 2 0.862926 0.634759 0.631485
94 2 0.867008 0.880203 0.627338
95 2 0.871485 0.871856 0.878815
96 2 0.867795 0.616497 0.86942
ITEM: TIMESTEP
5000
ITEM: NUMBER OF ATOMS
96
ITEM: BOX BOUNDS pp pp pp
-2.5576576699434028e-02 1.0960476576699406e+01
-2.5576576699434028e-02 1.0960476576699406e+01
-2.5576576699434028e-02 1.0960476576699406e+01
ITEM: ATOMS id type xs ys zs
1 1 0.994593 0.998501 0.00501564
2 1 0.00237727 0.253463 0.249235
3 1 0.248753 0.999761 0.248575
4 1 0.253694 0.251737 0.997036
5 2 0.124718 0.123886 0.368177
6 2 0.127833 0.367636 0.375005
7 2 0.123145 0.367522 0.123202
8 2 0.121366 0.132182 0.123835
9 2 0.369043 0.138183 0.118389
10 2 0.383301 0.376563 0.124582
11 2 0.385033 0.370305 0.368982
12 2 0.368917 0.125885 0.376888
13 1 0.997857 0.999789 0.496127
14 1 0.00208416 0.248876 0.754026
15 1 0.252337 0.00135122 0.754539
16 1 0.24483 0.246493 0.497185
17 2 0.123696 0.128317 0.875104
18 2 0.127438 0.369518 0.881875
19 2 0.130353 0.384246 0.621424
20 2 0.130487 0.129912 0.626136
21 2 0.377754 0.126111 0.625913
22 2 0.376619 0.372623 0.616144
23 2 0.373208 0.385207 0.872452
24 2 0.370533 0.119987 0.885558
25 1 0.0034492 0.500677 0.0016592
26 1 0.00869859 0.747834 0.254625
27 1 0.244434 0.495584 0.248388
28 1 0.252906 0.745279 0.996682
29 2 0.128538 0.613829 0.366822
30 2 0.12035 0.883943 0.379811
31 2 0.126417 0.871918 0.12808
32 2 0.12191 0.626138 0.131005
33 2 0.365274 0.625736 0.112124
34 2 0.380513 0.880608 0.116014
35 2 0.368907 0.879741 0.38094
36 2 0.367032 0.628769 0.377516
37 1 0.995479 0.503332 0.501857
38 1 0.00259825 0.757168 0.750884
39 1 0.251649 0.502882 0.745868
40 1 0.255994 0.746823 0.495702
41 2 0.126136 0.626702 0.883679
42 2 0.131637 0.87617 0.874005
43 2 0.125535 0.866624 0.635584
44 2 0.125173 0.623263 0.622728
45 2 0.377953 0.622485 0.633183
46 2 0.382405 0.873112 0.628434
47 2 0.37921 0.867509 0.876704
48 2 0.377024 0.621382 0.859062
49 1 0.493371 0.996413 0.00441752
50 1 0.496383 0.255201 0.246716
51 1 0.745473 0.997304 0.251457
52 1 0.751705 0.248233 0.00358783
53 2 0.625359 0.121338 0.373304
54 2 0.623172 0.382699 0.372661
55 2 0.634194 0.374864 0.11835
56 2 0.614843 0.116115 0.119974
57 2 0.871341 0.127191 0.131174
58 2 0.873446 0.379931 0.131615
59 2 0.87787 0.384347 0.376712
60 2 0.86393 0.123244 0.381488
61 1 0.500903 0.00146661 0.502351
62 1 0.500148 0.251516 0.745575
63 1 0.749332 0.00717275 0.750926
64 1 0.751388 0.249965 0.494306
65 2 0.628683 0.122 0.871429
66 2 0.629777 0.368418 0.859117
67 2 0.62866 0.386085 0.623962
68 2 0.625917 0.129802 0.629194
69 2 0.870708 0.120286 0.636657
70 2 0.873259 0.385545 0.629083
71 2 0.875833 0.366466 0.871287
72 2 0.882015 0.123975 0.880695
73 1 0.499408 0.494435 0.991257
74 1 0.498228 0.747172 0.251032
75 1 0.746478 0.502187 0.250389
76 1 0.748553 0.742377 0.000452506
77 2 0.626729 0.623537 0.387733
78 2 0.62394 0.878478 0.366312
79 2 0.622584 0.882418 0.128271
80 2 0.619964 0.622958 0.132512
81 2 0.877517 0.625353 0.126355
82 2 0.870644 0.864988 0.128576
83 2 0.882093 0.880797 0.373113
84 2 0.873654 0.619157 0.374404
85 1 0.499046 0.499573 0.498404
86 1 0.504736 0.756534 0.753922
87 1 0.74682 0.494161 0.750063
88 1 0.75265 0.754969 0.506582
89 2 0.629059 0.630166 0.888275
90 2 0.637101 0.875616 0.875265
91 2 0.62629 0.879023 0.622133
92 2 0.631702 0.631516 0.621495
93 2 0.878596 0.617547 0.624538
94 2 0.879456 0.867222 0.622607
95 2 0.868412 0.878267 0.868616
96 2 0.867706 0.620128 0.87386
