LAMMPS (11 Aug 2017)
# REAX potential for CeO2 system
# .....
boundary       p p p
units		real

atom_style	charge
read_data data.CeO2
  orthogonal box = (0 0 0) to (10.9349 10.9349 10.9349)
  1 by 1 by 1 MPI processor grid
  reading atoms ...
  96 atoms

pair_style	reax 10.0 0 1 1.0e-6
WARNING: The pair_style reax command is unsupported. Please switch to pair_style reax/c instead (../pair_reax.cpp:49)
pair_coeff	* * ffield.reax 4 3

neighbor	2 bin
neigh_modify	every 10 delay 0 check no

velocity        all create 300.0 12345 mom yes rot yes
# fix npt used Nose-Hoover thermostat and barostat
fix             1 all npt temp 300.0 300.0 100.0 iso 1.0 1.0 1000.0 # T start = T end = 300 K, P start = P stop = 1 atm

timestep        1.0
thermo          100
thermo_style    custom step temp press lx ly lz

dump           1 all custom 1000 dump.lammpstrj id type x y z vx vy vz q
#run             10000
run 500 pre no post no
Neighbor list info ...
  update every 10 steps, delay 0 steps, check no
  max neighbors/atom: 2000, page size: 100000
  master list distance cutoff = 12
  ghost atom cutoff = 12
  binsize = 6, bins = 2 2 2
  1 neighbor lists, perpetual/occasional/extra = 1 0 0
  (1) pair reax, perpetual
      attributes: half, newton off
      pair build: half/bin/newtoff
      stencil: half/bin/3d/newtoff
      bin: standard
Per MPI rank memory allocation (min/avg/max) = 5.224 | 5.224 | 5.224 Mbytes
Step Temp Press Lx Ly Lz 
       0          300    27830.622      10.9349      10.9349      10.9349 
     100    182.14904    -12040.13    11.009593    11.009593    11.009593 
     200    213.77827   -17025.385     11.02442     11.02442     11.02442 
     300    234.45222    25014.034    10.948404    10.948404    10.948404 
     400    320.41575    5304.7304    10.983325    10.983325    10.983325 
     500    339.65305   -20682.449    11.033242    11.033242    11.033242 
Loop time of 17.8359 on 1 procs for 500 steps with 96 atoms

run 500 pre no post no
Step Temp Press Lx Ly Lz 
     500    339.65305   -20682.449    11.033242    11.033242    11.033242 
     600    296.92994    6501.1707    10.985369    10.985369    10.985369 
     700    280.93297    15697.383    10.962576    10.962576    10.962576 
     800    294.78562   -15455.343    11.021694    11.021694    11.021694 
     900    344.96422    -5967.987    11.001405    11.001405    11.001405 
    1000    290.19465    11361.774    10.969796    10.969796    10.969796 
Loop time of 16.9778 on 1 procs for 500 steps with 96 atoms

run 500 pre no post no
Step Temp Press Lx Ly Lz 
    1000    290.19465    11361.774    10.969796    10.969796    10.969796 
    1100     277.2058   -3978.1733    11.003777    11.003777    11.003777 
    1200    296.10895   -1826.4823    10.998747    10.998747    10.998747 
    1300    309.72641    9189.5797    10.977235    10.977235    10.977235 
    1400    278.95485   -1280.8524    10.994939    10.994939    10.994939 
    1500    259.62032   -8721.3933    11.009677    11.009677    11.009677 
Loop time of 16.7931 on 1 procs for 500 steps with 96 atoms

run 500 pre no post no
Step Temp Press Lx Ly Lz 
    1500    259.62032   -8721.3933    11.009677    11.009677    11.009677 
    1600    295.66306    6194.1596     10.97762     10.97762     10.97762 
    1700    331.69333   -196.64939     10.98882     10.98882     10.98882 
    1800    308.83863   -14372.291    11.021098    11.021098    11.021098 
    1900    298.23197    6067.4941    10.983364    10.983364    10.983364 
    2000    246.44478    11530.141    10.974984    10.974984    10.974984 
Loop time of 16.4133 on 1 procs for 500 steps with 96 atoms

run 500 pre no post no
Step Temp Press Lx Ly Lz 
    2000    246.44478    11530.141    10.974984    10.974984    10.974984 
    2100    285.52761   -2784.8771    11.000383    11.000383    11.000383 
    2200    288.10996   -4462.9072    11.000902    11.000902    11.000902 
    2300    326.37836    6668.1396    10.981242    10.981242    10.981242 
    2400     314.8076   -2547.7039    10.996794    10.996794    10.996794 
    2500     278.4841   -8009.5513    11.007395    11.007395    11.007395 
Loop time of 17.4578 on 1 procs for 500 steps with 96 atoms

run 500 pre no post no
Step Temp Press Lx Ly Lz 
    2500     278.4841   -8009.5513    11.007395    11.007395    11.007395 
    2600     302.5428    5280.4386    10.980096    10.980096    10.980096 
    2700    285.24106    -274.2457     10.99516     10.99516     10.99516 
    2800    299.86261   -5094.4994    11.002776    11.002776    11.002776 
    2900    264.10807    3751.2163    10.988662    10.988662    10.988662 
    3000    274.99533     7476.743    10.980919    10.980919    10.980919 
Loop time of 16.8016 on 1 procs for 500 steps with 96 atoms

run 500 pre no post no
Step Temp Press Lx Ly Lz 
    3000    274.99533     7476.743    10.980919    10.980919    10.980919 
    3100    285.77555    -6615.225    11.003828    11.003828    11.003828 
    3200    269.47813   -4852.4985    11.002196    11.002196    11.002196 
    3300    314.47391    7340.9241    10.974409    10.974409    10.974409 
    3400    312.96953     -5851.55    11.003105    11.003105    11.003105 
    3500    291.10628   -6159.5364     11.00549     11.00549     11.00549 
Loop time of 17.5148 on 1 procs for 500 steps with 96 atoms

run 500 pre no post no
Step Temp Press Lx Ly Lz 
    3500    291.10628   -6159.5364     11.00549     11.00549     11.00549 
    3600    293.93752    11211.774    10.974616    10.974616    10.974616 
    3700    261.47679    2610.8611    10.987635    10.987635    10.987635 
    3800    273.38731   -8410.4659    11.007299    11.007299    11.007299 
    3900    266.34975    4829.5595    10.984181    10.984181    10.984181 
    4000    322.46959    9224.6656    10.974058    10.974058    10.974058 
Loop time of 17.0668 on 1 procs for 500 steps with 96 atoms

run 500 pre no post no
Step Temp Press Lx Ly Lz 
    4000    322.46959    9224.6656    10.974058    10.974058    10.974058 
    4100    326.49168   -14227.347    11.021694    11.021694    11.021694 
    4200    310.22224   -4821.5304    11.000915    11.000915    11.000915 
    4300    302.84643    14124.477    10.963458    10.963458    10.963458 
    4400     228.5826   -7128.5113    11.007749    11.007749    11.007749 
    4500    310.64207   -4548.8944    11.002805    11.002805    11.002805 
Loop time of 17.4394 on 1 procs for 500 steps with 96 atoms

run 500 pre no post no
Step Temp Press Lx Ly Lz 
    4500    310.64207   -4548.8944    11.002805    11.002805    11.002805 
    4600    328.02762    12141.365    10.970577    10.970577    10.970577 
    4700    325.65637   -3017.1786    10.999423    10.999423    10.999423 
    4800    299.67909   -11691.276    11.016289    11.016289    11.016289 
    4900    300.88484    9514.1184    10.972107    10.972107    10.972107 
    5000     279.7055     2386.811    10.986053    10.986053    10.986053 
Loop time of 17.6018 on 1 procs for 500 steps with 96 atoms

run 500 pre no post no
Step Temp Press Lx Ly Lz 
    5000     279.7055     2386.811    10.986053    10.986053    10.986053 
    5100    292.91706   -12654.661     11.01976     11.01976     11.01976 
    5200    305.64075    7654.6013    10.979287    10.979287    10.979287 
    5300    291.83469    10294.128    10.977292    10.977292    10.977292 
    5400    336.36458   -9145.8678    11.012293    11.012293    11.012293 
    5500    296.40235     -1817.54    10.994963    10.994963    10.994963 
Loop time of 17.5203 on 1 procs for 500 steps with 96 atoms

Total wall time: 0:03:09
