 # O8
  
           1  atoms
           1  atom types
 
      0.000000000000       3.003546000000  xlo xhi
      0.000000000000       3.779770000000  ylo yhi
      0.000000000000       7.797674000000  zlo zhi
 
Masses
 
            1   15.99900000             # O
 
Atoms # atomic
 
         1    1  -2.000000        0.500000000000       0.000000000000       0.921098
