(written by ASE)

672 atoms
2 atom types

0.0             15.46428487  xlo xhi
0.0      13.392463548779336  ylo yhi
0.0      407.20577714289385  zlo zhi
    -7.7321424349999965      -5.799106835360214     -3.3481158924546164  xy xz yz

Masses

      1    140.116       # Ce
      2    15.999       # O

Atoms # atomic

         1         1   4.0        1.9330355507236217       1.1160386848464894       1.5783173760325417
         2         1   4.0        -5.8026377307124158e-08       4.4641545720413234       1.5783173760325417
         3         1   4.0        -1.9330356667763764       7.8122704592361574       1.5783173760325417
         4         1   4.0        -3.8660712755263758       11.160386346430991       1.5783173760325417
         5         1   4.0        5.7991067682236226       1.1160386848464894       1.5783173760325417
         6         1   4.0        3.8660711594736226       4.4641545720413234       1.5783173760325417
         7         1   4.0        1.9330355507236237       7.8122704592361574       1.5783173760325417
         8         1   4.0        -5.8026375503011743e-08       11.160386346430991       1.5783173760325417
         9         1   4.0        9.66517798572362       1.1160386848464894       1.5783173760325417
         10         1   4.0        7.7321423769736226       4.4641545720413234       1.5783173760325417
         11         1   4.0        5.7991067682236235       7.8122704592361574       1.5783173760325417
         12         1   4.0        3.8660711594736226       11.160386346430991       1.5783173760325417
         13         1   4.0        13.53124920322362       1.1160386848464896       1.5783173760325417
         14         1   4.0        11.598213594473622       4.4641545720413234       1.5783173760325417
         15         1   4.0        9.6651779857236217       7.8122704592361574       1.5783173760325417
         16         1   4.0        7.7321423769736253       11.160386346430991       1.5783173760325417
         17         1   4.0        -9.6757713171013454e-08       3.3419998601694053e-08       4.7349521280976257
         18         1   4.0        -1.9330357055077123       3.3481159206148328       4.7349521280976257
         19         1   4.0        -3.8660713142577117       6.6962318078096672       4.7349521280976257
         20         1   4.0        -5.7991069230077104       10.0443476950045       4.7349521280976257
         21         1   4.0        3.8660711207422871       3.3419998636032722e-08       4.7349521280976257
         22         1   4.0        1.933035511992288       3.3481159206148328       4.7349521280976257
         23         1   4.0        -9.6757711158734222e-08       6.6962318078096672       4.7349521280976257
         24         1   4.0        -1.9330357055077103       10.0443476950045       4.7349521280976257
         25         1   4.0        7.7321423382422863       3.3419998670371398e-08       4.7349521280976257
         26         1   4.0        5.7991067294922871       3.3481159206148328       4.7349521280976257
         27         1   4.0        3.8660711207422875       6.6962318078096672       4.7349521280976257
         28         1   4.0        1.9330355119922884       10.0443476950045       4.7349521280976257
         29         1   4.0        11.598213555742285       3.3419998704710074e-08       4.7349521280976257
         30         1   4.0        9.6651779469922872       3.3481159206148328       4.7349521280976257
         31         1   4.0        7.732142338242288       6.6962318078096672       4.7349521280976257
         32         1   4.0        5.7991067294922889       10.0443476950045       4.7349521280976257
         33         1   4.0        7.7144870759659393e-08       2.2320773026695004       7.8915828081049391
         34         1   4.0        -1.9330355316051289       5.5801931898643353       7.8915828081049391
         35         1   4.0        -3.8660711403551282       8.9283090770591684       7.8915828081049391
         36         1   4.0        -5.7991067491051274       12.276424964254003       7.8915828081049391
         37         1   4.0        3.8660712946448705       2.2320773026695004       7.8915828081049391
         38         1   4.0        1.9330356858948705       5.5801931898643353       7.8915828081049391
         39         1   4.0        7.7144872091927022e-08       8.9283090770591684       7.8915828081049391
         40         1   4.0        -1.9330355316051271       12.276424964254003       7.8915828081049391
         41         1   4.0        7.732142512144871       2.2320773026695004       7.8915828081049391
         42         1   4.0        5.7991069033948719       5.5801931898643353       7.8915828081049391
         43         1   4.0        3.8660712946448728       8.9283090770591684       7.8915828081049391
         44         1   4.0        1.9330356858948736       12.276424964254003       7.8915828081049391
         45         1   4.0        11.598213729644872       2.2320773026695004       7.8915828081049391
         46         1   4.0        9.6651781208948737       5.5801931898643353       7.8915828081049391
         47         1   4.0        7.7321425121448728       8.9283090770591684       7.8915828081049391
         48         1   4.0        5.7991069033948737       12.276424964254003       7.8915828081049391
         49         1   4.0        1.9330356471635364       1.11603865124301       11.048217560170023
         50         1   4.0        3.8413537314671619e-08       4.4641545384378434       11.048217560170023
         51         1   4.0        -1.9330355703364623       7.8122704256326783       11.048217560170023
         52         1   4.0        -3.8660711790864615       11.160386312827514       11.048217560170023
         53         1   4.0        5.7991068646635364       1.11603865124301       11.048217560170023
         54         1   4.0        3.8660712559135373       4.4641545384378434       11.048217560170023
         55         1   4.0        1.9330356471635377       7.8122704256326783       11.048217560170023
         56         1   4.0        3.8413538702450399e-08       11.160386312827514       11.048217560170023
         57         1   4.0        9.6651780821635356       1.11603865124301       11.048217560170023
         58         1   4.0        7.7321424734135373       4.4641545384378434       11.048217560170023
         59         1   4.0        5.7991068646635373       7.8122704256326783       11.048217560170023
         60         1   4.0        3.8660712559135382       11.160386312827514       11.048217560170023
         61         1   4.0        13.531249299663537       1.1160386512430103       11.048217560170023
         62         1   4.0        11.598213690913539       4.4641545384378434       11.048217560170023
         63         1   4.0        9.6651780821635391       7.8122704256326783       11.048217560170023
         64         1   4.0        7.73214247341354       11.160386312827514       11.048217560170023
         65         1   4.0        -3.1779810859791132e-10       -1.8348075973295267e-10       14.204852312235108
         66         1   4.0        -1.9330356090677974       3.3481158870113537       14.204852312235108
         67         1   4.0        -3.8660712178177961       6.6962317742061863       14.204852312235108
         68         1   4.0        -5.7991068265677956       10.044347661401021       14.204852312235108
         69         1   4.0        3.8660712171822009       -1.8348072539427915e-10       14.204852312235108
         70         1   4.0        1.9330356084322025       3.3481158870113537       14.204852312235108
         71         1   4.0        -3.1779652653010123e-10       6.6962317742061863       14.204852312235108
         72         1   4.0        -1.9330356090677956       10.044347661401021       14.204852312235108
         73         1   4.0        7.7321424346822045       -1.8348069105560563e-10       14.204852312235108
         74         1   4.0        5.7991068259322054       3.3481158870113537       14.204852312235108
         75         1   4.0        3.8660712171822071       6.6962317742061863       14.204852312235108
         76         1   4.0        1.9330356084322073       10.044347661401021       14.204852312235108
         77         1   4.0        11.598213652182206       -1.8348065671693213e-10       14.204852312235108
         78         1   4.0        9.6651780434322063       3.3481158870113537       14.204852312235108
         79         1   4.0        7.7321424346822072       6.6962317742061863       14.204852312235108
         80         1   4.0        5.7991068259322072       10.044347661401021       14.204852312235108
         81         1   4.0        -3.9049131659760064e-08       2.2320772355848626       17.361487064300185
         82         1   4.0        -1.9330356477991306       5.5801931227796961       17.361487064300185
         83         1   4.0        -3.8660712565491298       8.9283090099745301       17.361487064300185
         84         1   4.0        -5.7991068652991293       12.276424897169365       17.361487064300185
         85         1   4.0        3.8660711784508694       2.2320772355848626       17.361487064300185
         86         1   4.0        1.9330355697008701       5.5801931227796961       17.361487064300185
         87         1   4.0        -3.9049128995224805e-08       8.9283090099745301       17.361487064300185
         88         1   4.0        -1.9330356477991282       12.276424897169365       17.361487064300185
         89         1   4.0        7.7321423959508673       2.2320772355848626       17.361487064300185
         90         1   4.0        5.7991067872008681       5.5801931227796961       17.361487064300185
         91         1   4.0        3.8660711784508694       8.9283090099745301       17.361487064300185
         92         1   4.0        1.9330355697008701       12.276424897169365       17.361487064300185
         93         1   4.0        11.598213613450866       2.2320772355848626       17.361487064300185
         94         1   4.0        9.6651780047008682       5.5801931227796961       17.361487064300185
         95         1   4.0        7.7321423959508691       8.9283090099745301       17.361487064300185
         96         1   4.0        5.7991067872008699       12.276424897169365       17.361487064300185
         97         1   4.0        1.9330356856123829       1.1160385841583718       20.518121816365269
         98         1   4.0        7.6862383636281346e-08       4.4641544713532051       20.518121816365269
         99         1   4.0        -1.9330355318876156       7.8122703585480391       20.518121816365269
         100         1   4.0        -3.8660711406376143       11.160386245742874       20.518121816365269
         101         1   4.0        5.7991069031123823       1.1160385841583718       20.518121816365269
         102         1   4.0        3.8660712943623836       4.4641544713532051       20.518121816365269
         103         1   4.0        1.9330356856123847       7.8122703585480391       20.518121816365269
         104         1   4.0        7.6862385468149337e-08       11.160386245742874       20.518121816365269
         105         1   4.0        9.6651781206123832       1.1160385841583718       20.518121816365269
         106         1   4.0        7.7321425118623823       4.4641544713532051       20.518121816365269
         107         1   4.0        5.7991069031123832       7.8122703585480391       20.518121816365269
         108         1   4.0        3.8660712943623845       11.160386245742874       20.518121816365269
         109         1   4.0        13.531249338112383       1.116038584158372       20.518121816365269
         110         1   4.0        11.598213729362383       4.4641544713532051       20.518121816365269
         111         1   4.0        9.665178120612385       7.8122703585480391       20.518121816365269
         112         1   4.0        7.7321425118623841       11.160386245742874       20.518121816365269
         113         1   4.0        9.6122116924668072e-08       -3.3786960118744421e-08       23.674752496372587
         114         1   4.0        -1.933035512627882       3.3481158534078737       23.674752496372587
         115         1   4.0        -3.8660711213778813       6.6962317406027081       23.674752496372587
         116         1   4.0        -5.79910673012788       10.044347627797544       23.674752496372587
         117         1   4.0        3.8660713136221174       -3.3786960084405745e-08       23.674752496372587
         118         1   4.0        1.9330357048721181       3.3481158534078737       23.674752496372587
         119         1   4.0        9.6122118590002609e-08       6.6962317406027081       23.674752496372587
         120         1   4.0        -1.9330355126278806       10.044347627797544       23.674752496372587
         121         1   4.0        7.7321425311221175       -3.3786960050067076e-08       23.674752496372587
         122         1   4.0        5.7991069223721183       3.3481158534078737       23.674752496372587
         123         1   4.0        3.8660713136221192       6.6962317406027081       23.674752496372587
         124         1   4.0        1.9330357048721185       10.044347627797544       23.674752496372587
         125         1   4.0        11.598213748622117       -3.37869600157284e-08       23.674752496372587
         126         1   4.0        9.6651781398721184       3.3481158534078737       23.674752496372587
         127         1   4.0        7.7321425311221192       6.6962317406027081       23.674752496372587
         128         1   4.0        5.799106922372121       10.044347627797544       23.674752496372587
         129         1   4.0        5.7390783913345676e-08       2.232077201981383       26.831387248437665
         130         1   4.0        -1.9330355513592157       5.580193089176217       26.831387248437665
         131         1   4.0        -3.8660711601092146       8.928308976371051       26.831387248437665
         132         1   4.0        -5.7991067688592137       12.276424863565886       26.831387248437665
         133         1   4.0        3.8660712748907828       2.232077201981383       26.831387248437665
         134         1   4.0        1.9330356661407841       5.580193089176217       26.831387248437665
         135         1   4.0        5.7390784412946037e-08       8.928308976371051       26.831387248437665
         136         1   4.0        -1.9330355513592148       12.276424863565886       26.831387248437665
         137         1   4.0        7.7321424923907855       2.232077201981383       26.831387248437665
         138         1   4.0        5.7991068836407855       5.580193089176217       26.831387248437665
         139         1   4.0        3.8660712748907864       8.928308976371051       26.831387248437665
         140         1   4.0        1.9330356661407873       12.276424863565886       26.831387248437665
         141         1   4.0        11.598213709890787       2.232077201981383       26.831387248437665
         142         1   4.0        9.6651781011407873       5.580193089176217       26.831387248437665
         143         1   4.0        7.7321424923907873       8.928308976371051       26.831387248437665
         144         1   4.0        5.7991068836407891       12.276424863565886       26.831387248437665
         145         1   4.0        1.933035550088025       1.1160386844795278       29.98802200050276
         146         1   4.0        -5.8661974379879405e-08       4.4641545716743618       29.98802200050276
         147         1   4.0        -1.9330356674119735       7.8122704588691958       29.98802200050276
         148         1   4.0        -3.8660712761619727       11.160386346064032       29.98802200050276
         149         1   4.0        5.7991067675880243       1.1160386844795278       29.98802200050276
         150         1   4.0        3.8660711588380252       4.4641545716743618       29.98802200050276
         151         1   4.0        1.9330355500880259       7.8122704588691958       29.98802200050276
         152         1   4.0        -5.8661973047611776e-08       11.160386346064032       29.98802200050276
         153         1   4.0        9.6651779850880271       1.1160386844795278       29.98802200050276
         154         1   4.0        7.7321423763380279       4.4641545716743618       29.98802200050276
         155         1   4.0        5.7991067675880288       7.8122704588691958       29.98802200050276
         156         1   4.0        3.8660711588380288       11.160386346064032       29.98802200050276
         157         1   4.0        13.531249202588027       1.116038684479528       29.98802200050276
         158         1   4.0        11.598213593838027       4.4641545716743618       29.98802200050276
         159         1   4.0        9.6651779850880288       7.8122704588691958       29.98802200050276
         160         1   4.0        7.7321423763380297       11.160386346064032       29.98802200050276
         161         1   4.0        -9.7393309525593182e-08       3.3053037052057037e-08       33.14465675256784
         162         1   4.0        -1.9330357061433081       3.3481159202478707       33.14465675256784
         163         1   4.0        -3.8660713148933081       6.6962318074427056       33.14465675256784
         164         1   4.0        -5.7991069236433068       10.044347694637539       33.14465675256784
         165         1   4.0        3.8660711201066924       3.3053037086395706e-08       33.14465675256784
         166         1   4.0        1.9330355113566933       3.3481159202478707       33.14465675256784
         167         1   4.0        -9.7393306472479864e-08       6.6962318074427056       33.14465675256784
         168         1   4.0        -1.9330357061433054       10.044347694637539       33.14465675256784
         169         1   4.0        7.7321423376066907       3.3053037120734382e-08       33.14465675256784
         170         1   4.0        5.7991067288566915       3.3481159202478707       33.14465675256784
         171         1   4.0        3.8660711201066915       6.6962318074427056       33.14465675256784
         172         1   4.0        1.9330355113566928       10.044347694637539       33.14465675256784
         173         1   4.0        11.598213555106691       3.3053037155073058e-08       33.14465675256784
         174         1   4.0        9.6651779463566907       3.3481159202478707       33.14465675256784
         175         1   4.0        7.7321423376066925       6.6962318074427056       33.14465675256784
         176         1   4.0        5.7991067288566924       10.044347694637539       33.14465675256784
         177         1   4.0        1.851820610072719e-08       2.2320772688213801       36.301291504632921
         178         1   4.0        -1.9330355902317931       5.5801931560162146       36.301291504632921
         179         1   4.0        -3.8660711989817917       8.9283090432110477       36.301291504632921
         180         1   4.0        -5.7991068077317909       12.276424930405883       36.301291504632921
         181         1   4.0        3.8660712360182057       2.2320772688213801       36.301291504632921
         182         1   4.0        1.9330356272682065       5.5801931560162146       36.301291504632921
         183         1   4.0        1.8518208099128634e-08       8.9283090432110477       36.301291504632921
         184         1   4.0        -1.9330355902317911       12.276424930405883       36.301291504632921
         185         1   4.0        7.7321424535182066       2.2320772688213801       36.301291504632921
         186         1   4.0        5.7991068447682066       5.5801931560162146       36.301291504632921
         187         1   4.0        3.8660712360182083       8.9283090432110477       36.301291504632921
         188         1   4.0        1.9330356272682088       12.276424930405883       36.301291504632921
         189         1   4.0        11.598213671018206       2.2320772688213801       36.301291504632921
         190         1   4.0        9.6651780622682057       5.5801931560162146       36.301291504632921
         191         1   4.0        7.7321424535182084       8.9283090432110477       36.301291504632921
         192         1   4.0        5.7991068447682093       12.276424930405883       36.301291504632921
         193         1   4.0        1.9330356465279399       1.1160386508760485       39.457922184640225
         194         1   4.0        3.7777940857371477e-08       4.4641545380708827       39.457922184640225
         195         1   4.0        -1.9330355709720579       7.8122704252657158       39.457922184640225
         196         1   4.0        -3.866071179722057       11.160386312460551       39.457922184640225
         197         1   4.0        5.7991068640279417       1.1160386508760485       39.457922184640225
         198         1   4.0        3.8660712552779413       4.4641545380708827       39.457922184640225
         199         1   4.0        1.933035646527943       7.8122704252657158       39.457922184640225
         200         1   4.0        3.7777943965995946e-08       11.160386312460551       39.457922184640225
         201         1   4.0        9.6651780815279409       1.1160386508760485       39.457922184640225
         202         1   4.0        7.7321424727779418       4.4641545380708827       39.457922184640225
         203         1   4.0        5.7991068640279435       7.8122704252657158       39.457922184640225
         204         1   4.0        3.8660712552779439       11.160386312460551       39.457922184640225
         205         1   4.0        13.531249299027941       1.1160386508760487       39.457922184640225
         206         1   4.0        11.598213690277941       4.4641545380708827       39.457922184640225
         207         1   4.0        9.6651780815279427       7.8122704252657158       39.457922184640225
         208         1   4.0        7.7321424727779435       11.160386312460551       39.457922184640225
         209         1   4.0        -9.533943133099224e-10       -5.5044229760000041e-10       42.61455693670532
         210         1   4.0        -1.9330356097033934       3.3481158866443916       42.61455693670532
         211         1   4.0        -3.8660712184533925       6.6962317738392256       42.61455693670532
         212         1   4.0        -5.7991068272033903       10.04434766103406       42.61455693670532
         213         1   4.0        3.8660712165466049       -5.5044226326132691e-10       42.61455693670532
         214         1   4.0        1.9330356077966062       3.3481158866443916       42.61455693670532
         215         1   4.0        -9.5339309206459531e-10       6.6962317738392256       42.61455693670532
         216         1   4.0        -1.9330356097033923       10.04434766103406       42.61455693670532
         217         1   4.0        7.7321424340466063       -5.5044222892265342e-10       42.61455693670532
         218         1   4.0        5.7991068252966071       3.3481158866443916       42.61455693670532
         219         1   4.0        3.8660712165466076       6.6962317738392256       42.61455693670532
         220         1   4.0        1.9330356077966115       10.04434766103406       42.61455693670532
         221         1   4.0        11.598213651546608       -5.5044219458397982e-10       42.61455693670532
         222         1   4.0        9.6651780427966099       3.3481158866443916       42.61455693670532
         223         1   4.0        7.7321424340466098       6.6962317738392256       42.61455693670532
         224         1   4.0        5.7991068252966116       10.04434766103406       42.61455693670532
         225         2   -2.0        1.1596448160751664e-07       2.2320772357989234       0.78915665198738516
         226         2   -2.0        -1.9330354927855178       5.5801931229937578       0.78915665198738516
         227         2   -2.0        -3.8660711015355163       8.9283090101885918       0.78915665198738516
         228         2   -2.0        -5.7991067102855158       12.276424897383425       0.78915665198738516
         229         2   -2.0        3.8660713334644812       2.2320772357989234       0.78915665198738516
         230         2   -2.0        1.9330357247144818       5.5801931229937578       0.78915665198738516
         231         2   -2.0        1.1596448315488998e-07       8.9283090101885918       0.78915665198738516
         232         2   -2.0        -1.933035492785516       12.276424897383425       0.78915665198738516
         233         2   -2.0        7.7321425509644834       2.2320772357989234       0.78915665198738516
         234         2   -2.0        5.7991069422144843       5.5801931229937578       0.78915665198738516
         235         2   -2.0        3.8660713334644861       8.9283090101885918       0.78915665198738516
         236         2   -2.0        1.9330357247144867       12.276424897383425       0.78915665198738516
         237         2   -2.0        11.598213768464484       2.2320772357989234       0.78915665198738516
         238         2   -2.0        9.6651781597144844       5.5801931229937578       0.78915665198738516
         239         2   -2.0        7.7321425509644852       8.9283090101885918       0.78915665198738516
         240         2   -2.0        5.7991069422144861       12.276424897383425       0.78915665198738516
         241         2   -2.0        5.7938101946546972e-08       3.3450578763586111e-08       2.3674740280199273
         242         2   -2.0        -1.9330355508118973       3.3481159206454127       2.3674740280199273
         243         2   -2.0        -3.866071159561896       6.6962318078402463       2.3674740280199273
         244         2   -2.0        -5.7991067683118951       10.04434769503508       2.3674740280199273
         245         2   -2.0        3.8660712754381019       3.3450578797924787e-08       2.3674740280199273
         246         2   -2.0        1.9330356666881028       3.3481159206454127       2.3674740280199273
         247         2   -2.0        5.7938104062909613e-08       6.6962318078402463       2.3674740280199273
         248         2   -2.0        -1.933035550811895       10.04434769503508       2.3674740280199273
         249         2   -2.0        7.7321424929381015       3.3450578832263456e-08       2.3674740280199273
         250         2   -2.0        5.7991068841881024       3.3481159206454127       2.3674740280199273
         251         2   -2.0        3.8660712754381041       6.6962318078402463       2.3674740280199273
         252         2   -2.0        1.933035666688105       10.04434769503508       2.3674740280199273
         253         2   -2.0        11.598213710438102       3.3450578866602132e-08       2.3674740280199273
         254         2   -2.0        9.6651781016881024       3.3481159206454127       2.3674740280199273
         255         2   -2.0        7.7321424929381042       6.6962318078402463       2.3674740280199273
         256         2   -2.0        5.799106884188105       10.04434769503508       2.3674740280199273
         257         2   -2.0        1.9330356859831475       1.1160385843724323       3.9457914040524695
         258         2   -2.0        7.723314843435771e-08       4.4641544715672667       3.9457914040524695
         259         2   -2.0        -1.9330355315168508       7.8122703587621007       3.9457914040524695
         260         2   -2.0        -3.8660711402668499       11.160386245956934       3.9457914040524695
         261         2   -2.0        5.7991069034831479       1.1160385843724323       3.9457914040524695
         262         2   -2.0        3.8660712947331484       4.4641544715672667       3.9457914040524695
         263         2   -2.0        1.9330356859831497       7.8122703587621007       3.9457914040524695
         264         2   -2.0        7.7233150633987077e-08       11.160386245956934       3.9457914040524695
         265         2   -2.0        9.6651781209831462       1.1160385843724323       3.9457914040524695
         266         2   -2.0        7.732142512233148       4.4641544715672667       3.9457914040524695
         267         2   -2.0        5.7991069034831497       7.8122703587621007       3.9457914040524695
         268         2   -2.0        3.8660712947331497       11.160386245956934       3.9457914040524695
         269         2   -2.0        13.531249338483146       1.1160385843724325       3.9457914040524695
         270         2   -2.0        11.598213729733148       4.4641544715672667       3.9457914040524695
         271         2   -2.0        9.665178120983148       7.8122703587621007       3.9457914040524695
         272         2   -2.0        7.7321425122331506       11.160386245956934       3.9457914040524695
         273         2   -2.0        1.9206768657335809e-08       2.2320772692189217       5.5241087800850117
         274         2   -2.0        -1.9330355895432307       5.580193156413757       5.5241087800850117
         275         2   -2.0        -3.8660711982932296       8.9283090436085892       5.5241087800850117
         276         2   -2.0        -5.7991068070432288       12.276424930803422       5.5241087800850117
         277         2   -2.0        3.8660712367067687       2.2320772692189217       5.5241087800850117
         278         2   -2.0        1.9330356279567691       5.580193156413757       5.5241087800850117
         279         2   -2.0        1.9206770655737254e-08       8.9283090436085892       5.5241087800850117
         280         2   -2.0        -1.9330355895432285       12.276424930803422       5.5241087800850117