4
 Atoms. Timestep: 0
1 0 0 0
2 0.166554 0.166554 0.166554
1 0.0832768 0.0832768 0.0832768
2 0.24983 0.24983 0.24983
4
 Atoms. Timestep: 26
1 2.48481 2.48481 2.48481
2 0.448377 0.448377 0.448377
1 3.13253 3.13253 3.13253
2 1.09609 1.09609 1.09609
