LAMMPS data file via write_data, version 2 Aug 2023, timestep = 26, units = lj

4 atoms
2 atom types

0 3.331073027704543 xlo xhi
0 3.331073027704543 ylo yhi
0 3.331073027704543 zlo zhi

Masses

1 140
2 16

Pair Coeffs # lj/cut

1 1 1
2 1 1

Atoms # atomic

1 1 2.484810835872288 2.484810835872288 2.484810835872288 -1 -1 -1
2 2 0.448376775079975 0.448376775079975 0.448376775079975 0 0 0
3 1 3.1325267297024073 3.1325267297024073 3.1325267297024073 -1 -1 -1
4 2 1.096092668910097 1.096092668910097 1.096092668910097 0 0 0

Velocities

1 0.06780930301443883 0.05466106989959857 -0.012426782434448632
2 -0.3129177867604906 0.20028411542673813 -0.23687840485515493
3 -0.03706390986652651 -0.11132104990371369 0.06581672992011428
4 0.043895596716257826 0.2954907096092692 -0.23028363564441948
