 # "Ce32 O64"
  
          96  atoms
           2  atom types
 
0.0 12.137739000000002 xlo xhi
0.0 12.137739000000002 ylo yhi
0.0 12.137739000000002 zlo zhi
 
Masses
 
            1   140.11600000            # Ce
            2   15.99900000             # O
 
Atoms
 
1 1 4.0 0.0 0.0 0.0
2 1 4.0 0.0 3.0344347500000004 3.0344347500000004
3 1 4.0 3.0344347500000004 0.0 3.0344347500000004
4 1 4.0 3.0344347500000004 3.0344347500000004 0.0
5 2 -2.0 1.5172173750000002 1.5172173750000002 4.551652125
6 2 -2.0 1.5172173750000002 4.551652125 4.551652125
7 2 -2.0 1.5172173750000002 4.551652125 1.5172173750000002
8 2 -2.0 1.5172173750000002 1.5172173750000002 1.5172173750000002
9 2 -2.0 4.551652125 1.5172173750000002 1.5172173750000002
10 2 -2.0 4.551652125 4.551652125 1.5172173750000002
11 2 -2.0 4.551652125 4.551652125 4.551652125
12 2 -2.0 4.551652125 1.5172173750000002 4.551652125
13 1 4.0 0.0 0.0 6.068869500000001
14 1 4.0 0.0 3.0344347500000004 9.10330425
15 1 4.0 3.0344347500000004 12.137739000000002 9.10330425
16 1 4.0 3.0344347500000004 3.0344347500000004 6.068869500000001
17 2 -2.0 1.5172173750000002 1.5172173750000002 10.620521625000002
18 2 -2.0 1.5172173750000002 4.551652125 10.620521625000002
19 2 -2.0 1.5172173750000002 4.551652125 7.586086875000001
20 2 -2.0 1.5172173750000002 1.5172173750000002 7.586086875000001
21 2 -2.0 4.551652125 1.5172173750000002 7.586086875000001
22 2 -2.0 4.551652125 4.551652125 7.586086875000001
23 2 -2.0 4.551652125 4.551652125 10.620521625000002
24 2 -2.0 4.551652125 1.5172173750000002 10.620521625000002
25 1 4.0 0.0 6.068869500000001 0.0
26 1 4.0 0.0 9.10330425 3.0344347500000004
27 1 4.0 3.0344347500000004 6.068869500000001 3.0344347500000004
28 1 4.0 3.0344347500000004 9.10330425 0.0
29 2 -2.0 1.5172173750000002 7.586086875000001 4.551652125
30 2 -2.0 1.5172173750000002 10.620521625000002 4.551652125
31 2 -2.0 1.5172173750000002 10.620521625000002 1.5172173750000002
32 2 -2.0 1.5172173750000002 7.586086875000001 1.5172173750000002
33 2 -2.0 4.551652125 7.586086875000001 1.5172173750000002
34 2 -2.0 4.551652125 10.620521625000002 1.5172173750000002
35 2 -2.0 4.551652125 10.620521625000002 4.551652125
36 2 -2.0 4.551652125 7.586086875000001 4.551652125
37 1 4.0 0.0 6.068869500000001 6.068869500000001
38 1 4.0 0.0 9.10330425 9.10330425
39 1 4.0 3.0344347500000004 6.068869500000001 9.10330425
40 1 4.0 3.0344347500000004 9.10330425 6.068869500000001
41 2 -2.0 1.5172173750000002 7.586086875000001 10.620521625000002
42 2 -2.0 1.5172173750000002 10.620521625000002 10.620521625000002
43 2 -2.0 1.5172173750000002 10.620521625000002 7.586086875000001
44 2 -2.0 1.5172173750000002 7.586086875000001 7.586086875000001
45 2 -2.0 4.551652125 7.586086875000001 7.586086875000001
46 2 -2.0 4.551652125 10.620521625000002 7.586086875000001
47 2 -2.0 4.551652125 10.620521625000002 10.620521625000002
48 2 -2.0 4.551652125 7.586086875000001 10.620521625000002
49 1 4.0 6.068869500000001 0.0 0.0
50 1 4.0 6.068869500000001 3.0344347500000004 3.0344347500000004
51 1 4.0 9.10330425 0.0 3.0344347500000004
52 1 4.0 9.10330425 3.0344347500000004 0.0
53 2 -2.0 7.586086875000001 1.5172173750000002 4.551652125
54 2 -2.0 7.586086875000001 4.551652125 4.551652125
55 2 -2.0 7.586086875000001 4.551652125 1.5172173750000002
56 2 -2.0 7.586086875000001 1.5172173750000002 1.5172173750000002
57 2 -2.0 10.620521625000002 1.5172173750000002 1.5172173750000002
58 2 -2.0 10.620521625000002 4.551652125 1.5172173750000002
59 2 -2.0 10.620521625000002 4.551652125 4.551652125
60 2 -2.0 10.620521625000002 1.5172173750000002 4.551652125
61 1 4.0 6.068869500000001 0.0 6.068869500000001
62 1 4.0 6.068869500000001 3.0344347500000004 9.10330425
63 1 4.0 9.10330425 12.137739000000002 9.10330425
64 1 4.0 9.10330425 3.0344347500000004 6.068869500000001
65 2 -2.0 7.586086875000001 1.5172173750000002 10.620521625000002
66 2 -2.0 7.586086875000001 4.551652125 10.620521625000002
67 2 -2.0 7.586086875000001 4.551652125 7.586086875000001
68 2 -2.0 7.586086875000001 1.5172173750000002 7.586086875000001
69 2 -2.0 10.620521625000002 1.5172173750000002 7.586086875000001
70 2 -2.0 10.620521625000002 4.551652125 7.586086875000001
71 2 -2.0 10.620521625000002 4.551652125 10.620521625000002
72 2 -2.0 10.620521625000002 1.5172173750000002 10.620521625000002
73 1 4.0 6.068869500000001 6.068869500000001 0.0
74 1 4.0 6.068869500000001 9.10330425 3.0344347500000004
75 1 4.0 9.10330425 6.068869500000001 3.0344347500000004
76 1 4.0 9.10330425 9.10330425 0.0
77 2 -2.0 7.586086875000001 7.586086875000001 4.551652125
78 2 -2.0 7.586086875000001 10.620521625000002 4.551652125
79 2 -2.0 7.586086875000001 10.620521625000002 1.5172173750000002
80 2 -2.0 7.586086875000001 7.586086875000001 1.5172173750000002
81 2 -2.0 10.620521625000002 7.586086875000001 1.5172173750000002
82 2 -2.0 10.620521625000002 10.620521625000002 1.5172173750000002
83 2 -2.0 10.620521625000002 10.620521625000002 4.551652125
84 2 -2.0 10.620521625000002 7.586086875000001 4.551652125
85 1 4.0 6.068869500000001 6.068869500000001 6.068869500000001
86 1 4.0 6.068869500000001 9.10330425 9.10330425
87 1 4.0 9.10330425 6.068869500000001 9.10330425
88 1 4.0 9.10330425 9.10330425 6.068869500000001
89 2 -2.0 7.586086875000001 7.586086875000001 10.620521625000002
90 2 -2.0 7.586086875000001 10.620521625000002 10.620521625000002
91 2 -2.0 7.586086875000001 10.620521625000002 7.586086875000001
92 2 -2.0 7.586086875000001 7.586086875000001 7.586086875000001
93 2 -2.0 10.620521625000002 7.586086875000001 7.586086875000001
94 2 -2.0 10.620521625000002 10.620521625000002 7.586086875000001
95 2 -2.0 10.620521625000002 10.620521625000002 10.620521625000002
96 2 -2.0 10.620521625000002 7.586086875000001 10.620521625000002
