 # "Ce32 O64"
  
          96  atoms
           2  atom types
 
0.0 13.449927000000002 xlo xhi
0.0 13.449927000000002 ylo yhi
0.0 13.449927000000002 zlo zhi
 
Masses
 
            1   140.11600000            # Ce
            2   15.99900000             # O
 
Atoms
 
1 1 4.0 0.0 0.0 0.0
2 1 4.0 0.0 3.3624817500000006 3.3624817500000006
3 1 4.0 3.3624817500000006 0.0 3.3624817500000006
4 1 4.0 3.3624817500000006 3.3624817500000006 0.0
5 2 -2.0 1.6812408750000003 1.6812408750000003 5.043722625
6 2 -2.0 1.6812408750000003 5.043722625 5.043722625
7 2 -2.0 1.6812408750000003 5.043722625 1.6812408750000003
8 2 -2.0 1.6812408750000003 1.6812408750000003 1.6812408750000003
9 2 -2.0 5.043722625 1.6812408750000003 1.6812408750000003
10 2 -2.0 5.043722625 5.043722625 1.6812408750000003
11 2 -2.0 5.043722625 5.043722625 5.043722625
12 2 -2.0 5.043722625 1.6812408750000003 5.043722625
13 1 4.0 0.0 0.0 6.724963500000001
14 1 4.0 0.0 3.3624817500000006 10.08744525
15 1 4.0 3.3624817500000006 13.449927000000002 10.08744525
16 1 4.0 3.3624817500000006 3.3624817500000006 6.724963500000001
17 2 -2.0 1.6812408750000003 1.6812408750000003 11.768686125000004
18 2 -2.0 1.6812408750000003 5.043722625 11.768686125000004
19 2 -2.0 1.6812408750000003 5.043722625 8.406204375000002
20 2 -2.0 1.6812408750000003 1.6812408750000003 8.406204375000002
21 2 -2.0 5.043722625 1.6812408750000003 8.406204375000002
22 2 -2.0 5.043722625 5.043722625 8.406204375000002
23 2 -2.0 5.043722625 5.043722625 11.768686125000004
24 2 -2.0 5.043722625 1.6812408750000003 11.768686125000004
25 1 4.0 0.0 6.724963500000001 0.0
26 1 4.0 0.0 10.08744525 3.3624817500000006
27 1 4.0 3.3624817500000006 6.724963500000001 3.3624817500000006
28 1 4.0 3.3624817500000006 10.08744525 0.0
29 2 -2.0 1.6812408750000003 8.406204375000002 5.043722625
30 2 -2.0 1.6812408750000003 11.768686125000004 5.043722625
31 2 -2.0 1.6812408750000003 11.768686125000004 1.6812408750000003
32 2 -2.0 1.6812408750000003 8.406204375000002 1.6812408750000003
33 2 -2.0 5.043722625 8.406204375000002 1.6812408750000003
34 2 -2.0 5.043722625 11.768686125000004 1.6812408750000003
35 2 -2.0 5.043722625 11.768686125000004 5.043722625
36 2 -2.0 5.043722625 8.406204375000002 5.043722625
37 1 4.0 0.0 6.724963500000001 6.724963500000001
38 1 4.0 0.0 10.08744525 10.08744525
39 1 4.0 3.3624817500000006 6.724963500000001 10.08744525
40 1 4.0 3.3624817500000006 10.08744525 6.724963500000001
41 2 -2.0 1.6812408750000003 8.406204375000002 11.768686125000004
42 2 -2.0 1.6812408750000003 11.768686125000004 11.768686125000004
43 2 -2.0 1.6812408750000003 11.768686125000004 8.406204375000002
44 2 -2.0 1.6812408750000003 8.406204375000002 8.406204375000002
45 2 -2.0 5.043722625 8.406204375000002 8.406204375000002
46 2 -2.0 5.043722625 11.768686125000004 8.406204375000002
47 2 -2.0 5.043722625 11.768686125000004 11.768686125000004
48 2 -2.0 5.043722625 8.406204375000002 11.768686125000004
49 1 4.0 6.724963500000001 0.0 0.0
50 1 4.0 6.724963500000001 3.3624817500000006 3.3624817500000006
51 1 4.0 10.08744525 0.0 3.3624817500000006
52 1 4.0 10.08744525 3.3624817500000006 0.0
53 2 -2.0 8.406204375000002 1.6812408750000003 5.043722625
54 2 -2.0 8.406204375000002 5.043722625 5.043722625
55 2 -2.0 8.406204375000002 5.043722625 1.6812408750000003
56 2 -2.0 8.406204375000002 1.6812408750000003 1.6812408750000003
57 2 -2.0 11.768686125000004 1.6812408750000003 1.6812408750000003
58 2 -2.0 11.768686125000004 5.043722625 1.6812408750000003
59 2 -2.0 11.768686125000004 5.043722625 5.043722625
60 2 -2.0 11.768686125000004 1.6812408750000003 5.043722625
61 1 4.0 6.724963500000001 0.0 6.724963500000001
62 1 4.0 6.724963500000001 3.3624817500000006 10.08744525
63 1 4.0 10.08744525 13.449927000000002 10.08744525
64 1 4.0 10.08744525 3.3624817500000006 6.724963500000001
65 2 -2.0 8.406204375000002 1.6812408750000003 11.768686125000004
66 2 -2.0 8.406204375000002 5.043722625 11.768686125000004
67 2 -2.0 8.406204375000002 5.043722625 8.406204375000002
68 2 -2.0 8.406204375000002 1.6812408750000003 8.406204375000002
69 2 -2.0 11.768686125000004 1.6812408750000003 8.406204375000002
70 2 -2.0 11.768686125000004 5.043722625 8.406204375000002
71 2 -2.0 11.768686125000004 5.043722625 11.768686125000004
72 2 -2.0 11.768686125000004 1.6812408750000003 11.768686125000004
73 1 4.0 6.724963500000001 6.724963500000001 0.0
74 1 4.0 6.724963500000001 10.08744525 3.3624817500000006
75 1 4.0 10.08744525 6.724963500000001 3.3624817500000006
76 1 4.0 10.08744525 10.08744525 0.0
77 2 -2.0 8.406204375000002 8.406204375000002 5.043722625
78 2 -2.0 8.406204375000002 11.768686125000004 5.043722625
79 2 -2.0 8.406204375000002 11.768686125000004 1.6812408750000003
80 2 -2.0 8.406204375000002 8.406204375000002 1.6812408750000003
81 2 -2.0 11.768686125000004 8.406204375000002 1.6812408750000003
82 2 -2.0 11.768686125000004 11.768686125000004 1.6812408750000003
83 2 -2.0 11.768686125000004 11.768686125000004 5.043722625
84 2 -2.0 11.768686125000004 8.406204375000002 5.043722625
85 1 4.0 6.724963500000001 6.724963500000001 6.724963500000001
86 1 4.0 6.724963500000001 10.08744525 10.08744525
87 1 4.0 10.08744525 6.724963500000001 10.08744525
88 1 4.0 10.08744525 10.08744525 6.724963500000001
89 2 -2.0 8.406204375000002 8.406204375000002 11.768686125000004
90 2 -2.0 8.406204375000002 11.768686125000004 11.768686125000004
91 2 -2.0 8.406204375000002 11.768686125000004 8.406204375000002
92 2 -2.0 8.406204375000002 8.406204375000002 8.406204375000002
93 2 -2.0 11.768686125000004 8.406204375000002 8.406204375000002
94 2 -2.0 11.768686125000004 11.768686125000004 8.406204375000002
95 2 -2.0 11.768686125000004 11.768686125000004 11.768686125000004
96 2 -2.0 11.768686125000004 8.406204375000002 11.768686125000004
