 # Ce4 O8 File set up matches examples on github. 
  
          12  atoms
           2  atom types
 
      0.000000000000       5.467450000000  xlo xhi
      0.000000000000       5.467450000000  ylo yhi
      0.000000000000       5.467450000000  zlo zhi
 
Masses
 
            1   140.11600000            # Ce
            2   15.99900000             # O
 
Atoms
 
         1    1   4.000000        0.000000000000       0.000000000000       0.000000000000
         2    1   4.000000        0.000000000000       2.733725000000       2.733725000000
         3    1   4.000000        2.733725000000       0.000000000000       2.733725000000
         4    1   4.000000        2.733725000000       2.733725000000       0.000000000000
         5    2   -2.000000        1.366862500000       1.366862500000       4.100587500000
         6    2   -2.000000        1.366862500000       4.100587500000       4.100587500000
         7    2   -2.000000        1.366862500000       4.100587500000       1.366862500000
         8    2   -2.000000        1.366862500000       1.366862500000       1.366862500000
         9    2   -2.000000        4.100587500000       1.366862500000       1.366862500000
        10    2   -2.000000        4.100587500000       4.100587500000       1.366862500000
        11    2   -2.000000        4.100587500000       4.100587500000       4.100587500000
        12    2   -2.000000        4.100587500000       1.366862500000       4.100587500000
