 # "Ce32 O64"
  
          96  atoms
           2  atom types
 
0.0 11.044249 xlo xhi
0.0 11.044249 ylo yhi
0.0 11.044249 zlo zhi
 
Masses
 
            1   140.11600000            # Ce
            2   15.99900000             # O
 
Atoms
 
1 1 4.0 0.0 0.0 0.0
2 1 4.0 0.0 2.76106225 2.76106225
3 1 4.0 2.76106225 0.0 2.76106225
4 1 4.0 2.76106225 2.76106225 0.0
5 2 -2.0 1.380531125 1.380531125 4.141593374999999
6 2 -2.0 1.380531125 4.141593374999999 4.141593374999999
7 2 -2.0 1.380531125 4.141593374999999 1.380531125
8 2 -2.0 1.380531125 1.380531125 1.380531125
9 2 -2.0 4.141593374999999 1.380531125 1.380531125
10 2 -2.0 4.141593374999999 4.141593374999999 1.380531125
11 2 -2.0 4.141593374999999 4.141593374999999 4.141593374999999
12 2 -2.0 4.141593374999999 1.380531125 4.141593374999999
13 1 4.0 0.0 0.0 5.5221245
14 1 4.0 0.0 2.76106225 8.283186749999999
15 1 4.0 2.76106225 11.044249 8.283186749999999
16 1 4.0 2.76106225 2.76106225 5.5221245
17 2 -2.0 1.380531125 1.380531125 9.663717875000001
18 2 -2.0 1.380531125 4.141593374999999 9.663717875000001
19 2 -2.0 1.380531125 4.141593374999999 6.902655625
20 2 -2.0 1.380531125 1.380531125 6.902655625
21 2 -2.0 4.141593374999999 1.380531125 6.902655625
22 2 -2.0 4.141593374999999 4.141593374999999 6.902655625
23 2 -2.0 4.141593374999999 4.141593374999999 9.663717875000001
24 2 -2.0 4.141593374999999 1.380531125 9.663717875000001
25 1 4.0 0.0 5.5221245 0.0
26 1 4.0 0.0 8.283186749999999 2.76106225
27 1 4.0 2.76106225 5.5221245 2.76106225
28 1 4.0 2.76106225 8.283186749999999 0.0
29 2 -2.0 1.380531125 6.902655625 4.141593374999999
30 2 -2.0 1.380531125 9.663717875000001 4.141593374999999
31 2 -2.0 1.380531125 9.663717875000001 1.380531125
32 2 -2.0 1.380531125 6.902655625 1.380531125
33 2 -2.0 4.141593374999999 6.902655625 1.380531125
34 2 -2.0 4.141593374999999 9.663717875000001 1.380531125
35 2 -2.0 4.141593374999999 9.663717875000001 4.141593374999999
36 2 -2.0 4.141593374999999 6.902655625 4.141593374999999
37 1 4.0 0.0 5.5221245 5.5221245
38 1 4.0 0.0 8.283186749999999 8.283186749999999
39 1 4.0 2.76106225 5.5221245 8.283186749999999
40 1 4.0 2.76106225 8.283186749999999 5.5221245
41 2 -2.0 1.380531125 6.902655625 9.663717875000001
42 2 -2.0 1.380531125 9.663717875000001 9.663717875000001
43 2 -2.0 1.380531125 9.663717875000001 6.902655625
44 2 -2.0 1.380531125 6.902655625 6.902655625
45 2 -2.0 4.141593374999999 6.902655625 6.902655625
46 2 -2.0 4.141593374999999 9.663717875000001 6.902655625
47 2 -2.0 4.141593374999999 9.663717875000001 9.663717875000001
48 2 -2.0 4.141593374999999 6.902655625 9.663717875000001
49 1 4.0 5.5221245 0.0 0.0
50 1 4.0 5.5221245 2.76106225 2.76106225
51 1 4.0 8.283186749999999 0.0 2.76106225
52 1 4.0 8.283186749999999 2.76106225 0.0
53 2 -2.0 6.902655625 1.380531125 4.141593374999999
54 2 -2.0 6.902655625 4.141593374999999 4.141593374999999
55 2 -2.0 6.902655625 4.141593374999999 1.380531125
56 2 -2.0 6.902655625 1.380531125 1.380531125
57 2 -2.0 9.663717875000001 1.380531125 1.380531125
58 2 -2.0 9.663717875000001 4.141593374999999 1.380531125
59 2 -2.0 9.663717875000001 4.141593374999999 4.141593374999999
60 2 -2.0 9.663717875000001 1.380531125 4.141593374999999
61 1 4.0 5.5221245 0.0 5.5221245
62 1 4.0 5.5221245 2.76106225 8.283186749999999
63 1 4.0 8.283186749999999 11.044249 8.283186749999999
64 1 4.0 8.283186749999999 2.76106225 5.5221245
65 2 -2.0 6.902655625 1.380531125 9.663717875000001
66 2 -2.0 6.902655625 4.141593374999999 9.663717875000001
67 2 -2.0 6.902655625 4.141593374999999 6.902655625
68 2 -2.0 6.902655625 1.380531125 6.902655625
69 2 -2.0 9.663717875000001 1.380531125 6.902655625
70 2 -2.0 9.663717875000001 4.141593374999999 6.902655625
71 2 -2.0 9.663717875000001 4.141593374999999 9.663717875000001
72 2 -2.0 9.663717875000001 1.380531125 9.663717875000001
73 1 4.0 5.5221245 5.5221245 0.0
74 1 4.0 5.5221245 8.283186749999999 2.76106225
75 1 4.0 8.283186749999999 5.5221245 2.76106225
76 1 4.0 8.283186749999999 8.283186749999999 0.0
77 2 -2.0 6.902655625 6.902655625 4.141593374999999
78 2 -2.0 6.902655625 9.663717875000001 4.141593374999999
79 2 -2.0 6.902655625 9.663717875000001 1.380531125
80 2 -2.0 6.902655625 6.902655625 1.380531125
81 2 -2.0 9.663717875000001 6.902655625 1.380531125
82 2 -2.0 9.663717875000001 9.663717875000001 1.380531125
83 2 -2.0 9.663717875000001 9.663717875000001 4.141593374999999
84 2 -2.0 9.663717875000001 6.902655625 4.141593374999999
85 1 4.0 5.5221245 5.5221245 5.5221245
86 1 4.0 5.5221245 8.283186749999999 8.283186749999999
87 1 4.0 8.283186749999999 5.5221245 8.283186749999999
88 1 4.0 8.283186749999999 8.283186749999999 5.5221245
89 2 -2.0 6.902655625 6.902655625 9.663717875000001
90 2 -2.0 6.902655625 9.663717875000001 9.663717875000001
91 2 -2.0 6.902655625 9.663717875000001 6.902655625
92 2 -2.0 6.902655625 6.902655625 6.902655625
93 2 -2.0 9.663717875000001 6.902655625 6.902655625
94 2 -2.0 9.663717875000001 9.663717875000001 6.902655625
95 2 -2.0 9.663717875000001 9.663717875000001 9.663717875000001
96 2 -2.0 9.663717875000001 6.902655625 9.663717875000001
