 # "Ce32 O64"
  
          96  atoms
           2  atom types
 
0.0 11.262947 xlo xhi
0.0 11.262947 ylo yhi
0.0 11.262947 zlo zhi
 
Masses
 
            1   140.11600000            # Ce
            2   15.99900000             # O
 
Atoms
 
1 1 4.0 0.0 0.0 0.0
2 1 4.0 0.0 2.81573675 2.81573675
3 1 4.0 2.81573675 0.0 2.81573675
4 1 4.0 2.81573675 2.81573675 0.0
5 2 -2.0 1.407868375 1.407868375 4.223605125
6 2 -2.0 1.407868375 4.223605125 4.223605125
7 2 -2.0 1.407868375 4.223605125 1.407868375
8 2 -2.0 1.407868375 1.407868375 1.407868375
9 2 -2.0 4.223605125 1.407868375 1.407868375
10 2 -2.0 4.223605125 4.223605125 1.407868375
11 2 -2.0 4.223605125 4.223605125 4.223605125
12 2 -2.0 4.223605125 1.407868375 4.223605125
13 1 4.0 0.0 0.0 5.6314735
14 1 4.0 0.0 2.81573675 8.44721025
15 1 4.0 2.81573675 11.262947 8.44721025
16 1 4.0 2.81573675 2.81573675 5.6314735
17 2 -2.0 1.407868375 1.407868375 9.855078625
18 2 -2.0 1.407868375 4.223605125 9.855078625
19 2 -2.0 1.407868375 4.223605125 7.039341875000001
20 2 -2.0 1.407868375 1.407868375 7.039341875000001
21 2 -2.0 4.223605125 1.407868375 7.039341875000001
22 2 -2.0 4.223605125 4.223605125 7.039341875000001
23 2 -2.0 4.223605125 4.223605125 9.855078625
24 2 -2.0 4.223605125 1.407868375 9.855078625
25 1 4.0 0.0 5.6314735 0.0
26 1 4.0 0.0 8.44721025 2.81573675
27 1 4.0 2.81573675 5.6314735 2.81573675
28 1 4.0 2.81573675 8.44721025 0.0
29 2 -2.0 1.407868375 7.039341875000001 4.223605125
30 2 -2.0 1.407868375 9.855078625 4.223605125
31 2 -2.0 1.407868375 9.855078625 1.407868375
32 2 -2.0 1.407868375 7.039341875000001 1.407868375
33 2 -2.0 4.223605125 7.039341875000001 1.407868375
34 2 -2.0 4.223605125 9.855078625 1.407868375
35 2 -2.0 4.223605125 9.855078625 4.223605125
36 2 -2.0 4.223605125 7.039341875000001 4.223605125
37 1 4.0 0.0 5.6314735 5.6314735
38 1 4.0 0.0 8.44721025 8.44721025
39 1 4.0 2.81573675 5.6314735 8.44721025
40 1 4.0 2.81573675 8.44721025 5.6314735
41 2 -2.0 1.407868375 7.039341875000001 9.855078625
42 2 -2.0 1.407868375 9.855078625 9.855078625
43 2 -2.0 1.407868375 9.855078625 7.039341875000001
44 2 -2.0 1.407868375 7.039341875000001 7.039341875000001
45 2 -2.0 4.223605125 7.039341875000001 7.039341875000001
46 2 -2.0 4.223605125 9.855078625 7.039341875000001
47 2 -2.0 4.223605125 9.855078625 9.855078625
48 2 -2.0 4.223605125 7.039341875000001 9.855078625
49 1 4.0 5.6314735 0.0 0.0
50 1 4.0 5.6314735 2.81573675 2.81573675
51 1 4.0 8.44721025 0.0 2.81573675
52 1 4.0 8.44721025 2.81573675 0.0
53 2 -2.0 7.039341875000001 1.407868375 4.223605125
54 2 -2.0 7.039341875000001 4.223605125 4.223605125
55 2 -2.0 7.039341875000001 4.223605125 1.407868375
56 2 -2.0 7.039341875000001 1.407868375 1.407868375
57 2 -2.0 9.855078625 1.407868375 1.407868375
58 2 -2.0 9.855078625 4.223605125 1.407868375
59 2 -2.0 9.855078625 4.223605125 4.223605125
60 2 -2.0 9.855078625 1.407868375 4.223605125
61 1 4.0 5.6314735 0.0 5.6314735
62 1 4.0 5.6314735 2.81573675 8.44721025
63 1 4.0 8.44721025 11.262947 8.44721025
64 1 4.0 8.44721025 2.81573675 5.6314735
65 2 -2.0 7.039341875000001 1.407868375 9.855078625
66 2 -2.0 7.039341875000001 4.223605125 9.855078625
67 2 -2.0 7.039341875000001 4.223605125 7.039341875000001
68 2 -2.0 7.039341875000001 1.407868375 7.039341875000001
69 2 -2.0 9.855078625 1.407868375 7.039341875000001
70 2 -2.0 9.855078625 4.223605125 7.039341875000001
71 2 -2.0 9.855078625 4.223605125 9.855078625
72 2 -2.0 9.855078625 1.407868375 9.855078625
73 1 4.0 5.6314735 5.6314735 0.0
74 1 4.0 5.6314735 8.44721025 2.81573675
75 1 4.0 8.44721025 5.6314735 2.81573675
76 1 4.0 8.44721025 8.44721025 0.0
77 2 -2.0 7.039341875000001 7.039341875000001 4.223605125
78 2 -2.0 7.039341875000001 9.855078625 4.223605125
79 2 -2.0 7.039341875000001 9.855078625 1.407868375
80 2 -2.0 7.039341875000001 7.039341875000001 1.407868375
81 2 -2.0 9.855078625 7.039341875000001 1.407868375
82 2 -2.0 9.855078625 9.855078625 1.407868375
83 2 -2.0 9.855078625 9.855078625 4.223605125
84 2 -2.0 9.855078625 7.039341875000001 4.223605125
85 1 4.0 5.6314735 5.6314735 5.6314735
86 1 4.0 5.6314735 8.44721025 8.44721025
87 1 4.0 8.44721025 5.6314735 8.44721025
88 1 4.0 8.44721025 8.44721025 5.6314735
89 2 -2.0 7.039341875000001 7.039341875000001 9.855078625
90 2 -2.0 7.039341875000001 9.855078625 9.855078625
91 2 -2.0 7.039341875000001 9.855078625 7.039341875000001
92 2 -2.0 7.039341875000001 7.039341875000001 7.039341875000001
93 2 -2.0 9.855078625 7.039341875000001 7.039341875000001
94 2 -2.0 9.855078625 9.855078625 7.039341875000001
95 2 -2.0 9.855078625 9.855078625 9.855078625
96 2 -2.0 9.855078625 7.039341875000001 9.855078625
