 # "Ce32 O64"
  
          96  atoms
           2  atom types
 
0.0 12.793833000000003 xlo xhi
0.0 12.793833000000003 ylo yhi
0.0 12.793833000000003 zlo zhi
 
Masses
 
            1   140.11600000            # Ce
            2   15.99900000             # O
 
Atoms
 
1 1 4.0 0.0 0.0 0.0
2 1 4.0 0.0 3.1984582500000007 3.1984582500000007
3 1 4.0 3.1984582500000007 0.0 3.1984582500000007
4 1 4.0 3.1984582500000007 3.1984582500000007 0.0
5 2 -2.0 1.5992291250000004 1.5992291250000004 4.797687375
6 2 -2.0 1.5992291250000004 4.797687375 4.797687375
7 2 -2.0 1.5992291250000004 4.797687375 1.5992291250000004
8 2 -2.0 1.5992291250000004 1.5992291250000004 1.5992291250000004
9 2 -2.0 4.797687375 1.5992291250000004 1.5992291250000004
10 2 -2.0 4.797687375 4.797687375 1.5992291250000004
11 2 -2.0 4.797687375 4.797687375 4.797687375
12 2 -2.0 4.797687375 1.5992291250000004 4.797687375
13 1 4.0 0.0 0.0 6.3969165000000014
14 1 4.0 0.0 3.1984582500000007 9.59537475
15 1 4.0 3.1984582500000007 12.793833000000003 9.59537475
16 1 4.0 3.1984582500000007 3.1984582500000007 6.3969165000000014
17 2 -2.0 1.5992291250000004 1.5992291250000004 11.194603875000002
18 2 -2.0 1.5992291250000004 4.797687375 11.194603875000002
19 2 -2.0 1.5992291250000004 4.797687375 7.996145625000001
20 2 -2.0 1.5992291250000004 1.5992291250000004 7.996145625000001
21 2 -2.0 4.797687375 1.5992291250000004 7.996145625000001
22 2 -2.0 4.797687375 4.797687375 7.996145625000001
23 2 -2.0 4.797687375 4.797687375 11.194603875000002
24 2 -2.0 4.797687375 1.5992291250000004 11.194603875000002
25 1 4.0 0.0 6.3969165000000014 0.0
26 1 4.0 0.0 9.59537475 3.1984582500000007
27 1 4.0 3.1984582500000007 6.3969165000000014 3.1984582500000007
28 1 4.0 3.1984582500000007 9.59537475 0.0
29 2 -2.0 1.5992291250000004 7.996145625000001 4.797687375
30 2 -2.0 1.5992291250000004 11.194603875000002 4.797687375
31 2 -2.0 1.5992291250000004 11.194603875000002 1.5992291250000004
32 2 -2.0 1.5992291250000004 7.996145625000001 1.5992291250000004
33 2 -2.0 4.797687375 7.996145625000001 1.5992291250000004
34 2 -2.0 4.797687375 11.194603875000002 1.5992291250000004
35 2 -2.0 4.797687375 11.194603875000002 4.797687375
36 2 -2.0 4.797687375 7.996145625000001 4.797687375
37 1 4.0 0.0 6.3969165000000014 6.3969165000000014
38 1 4.0 0.0 9.59537475 9.59537475
39 1 4.0 3.1984582500000007 6.3969165000000014 9.59537475
40 1 4.0 3.1984582500000007 9.59537475 6.3969165000000014
41 2 -2.0 1.5992291250000004 7.996145625000001 11.194603875000002
42 2 -2.0 1.5992291250000004 11.194603875000002 11.194603875000002
43 2 -2.0 1.5992291250000004 11.194603875000002 7.996145625000001
44 2 -2.0 1.5992291250000004 7.996145625000001 7.996145625000001
45 2 -2.0 4.797687375 7.996145625000001 7.996145625000001
46 2 -2.0 4.797687375 11.194603875000002 7.996145625000001
47 2 -2.0 4.797687375 11.194603875000002 11.194603875000002
48 2 -2.0 4.797687375 7.996145625000001 11.194603875000002
49 1 4.0 6.3969165000000014 0.0 0.0
50 1 4.0 6.3969165000000014 3.1984582500000007 3.1984582500000007
51 1 4.0 9.59537475 0.0 3.1984582500000007
52 1 4.0 9.59537475 3.1984582500000007 0.0
53 2 -2.0 7.996145625000001 1.5992291250000004 4.797687375
54 2 -2.0 7.996145625000001 4.797687375 4.797687375
55 2 -2.0 7.996145625000001 4.797687375 1.5992291250000004
56 2 -2.0 7.996145625000001 1.5992291250000004 1.5992291250000004
57 2 -2.0 11.194603875000002 1.5992291250000004 1.5992291250000004
58 2 -2.0 11.194603875000002 4.797687375 1.5992291250000004
59 2 -2.0 11.194603875000002 4.797687375 4.797687375
60 2 -2.0 11.194603875000002 1.5992291250000004 4.797687375
61 1 4.0 6.3969165000000014 0.0 6.3969165000000014
62 1 4.0 6.3969165000000014 3.1984582500000007 9.59537475
63 1 4.0 9.59537475 12.793833000000003 9.59537475
64 1 4.0 9.59537475 3.1984582500000007 6.3969165000000014
65 2 -2.0 7.996145625000001 1.5992291250000004 11.194603875000002
66 2 -2.0 7.996145625000001 4.797687375 11.194603875000002
67 2 -2.0 7.996145625000001 4.797687375 7.996145625000001
68 2 -2.0 7.996145625000001 1.5992291250000004 7.996145625000001
69 2 -2.0 11.194603875000002 1.5992291250000004 7.996145625000001
70 2 -2.0 11.194603875000002 4.797687375 7.996145625000001
71 2 -2.0 11.194603875000002 4.797687375 11.194603875000002
72 2 -2.0 11.194603875000002 1.5992291250000004 11.194603875000002
73 1 4.0 6.3969165000000014 6.3969165000000014 0.0
74 1 4.0 6.3969165000000014 9.59537475 3.1984582500000007
75 1 4.0 9.59537475 6.3969165000000014 3.1984582500000007
76 1 4.0 9.59537475 9.59537475 0.0
77 2 -2.0 7.996145625000001 7.996145625000001 4.797687375
78 2 -2.0 7.996145625000001 11.194603875000002 4.797687375
79 2 -2.0 7.996145625000001 11.194603875000002 1.5992291250000004
80 2 -2.0 7.996145625000001 7.996145625000001 1.5992291250000004
81 2 -2.0 11.194603875000002 7.996145625000001 1.5992291250000004
82 2 -2.0 11.194603875000002 11.194603875000002 1.5992291250000004
83 2 -2.0 11.194603875000002 11.194603875000002 4.797687375
84 2 -2.0 11.194603875000002 7.996145625000001 4.797687375
85 1 4.0 6.3969165000000014 6.3969165000000014 6.3969165000000014
86 1 4.0 6.3969165000000014 9.59537475 9.59537475
87 1 4.0 9.59537475 6.3969165000000014 9.59537475
88 1 4.0 9.59537475 9.59537475 6.3969165000000014
89 2 -2.0 7.996145625000001 7.996145625000001 11.194603875000002
90 2 -2.0 7.996145625000001 11.194603875000002 11.194603875000002
91 2 -2.0 7.996145625000001 11.194603875000002 7.996145625000001
92 2 -2.0 7.996145625000001 7.996145625000001 7.996145625000001
93 2 -2.0 11.194603875000002 7.996145625000001 7.996145625000001
94 2 -2.0 11.194603875000002 11.194603875000002 7.996145625000001
95 2 -2.0 11.194603875000002 11.194603875000002 11.194603875000002
96 2 -2.0 11.194603875000002 7.996145625000001 11.194603875000002
