 # "Ce32 O64"
  
          96  atoms
           2  atom types
 
0.0 11.809692000000002 xlo xhi
0.0 11.809692000000002 ylo yhi
0.0 11.809692000000002 zlo zhi
 
Masses
 
            1   140.11600000            # Ce
            2   15.99900000             # O
 
Atoms
 
1 1 4.0 0.0 0.0 0.0
2 1 4.0 0.0 2.9524230000000005 2.9524230000000005
3 1 4.0 2.9524230000000005 0.0 2.9524230000000005
4 1 4.0 2.9524230000000005 2.9524230000000005 0.0
5 2 -2.0 1.4762115000000002 1.4762115000000002 4.4286345
6 2 -2.0 1.4762115000000002 4.4286345 4.4286345
7 2 -2.0 1.4762115000000002 4.4286345 1.4762115000000002
8 2 -2.0 1.4762115000000002 1.4762115000000002 1.4762115000000002
9 2 -2.0 4.4286345 1.4762115000000002 1.4762115000000002
10 2 -2.0 4.4286345 4.4286345 1.4762115000000002
11 2 -2.0 4.4286345 4.4286345 4.4286345
12 2 -2.0 4.4286345 1.4762115000000002 4.4286345
13 1 4.0 0.0 0.0 5.904846000000001
14 1 4.0 0.0 2.9524230000000005 8.857269
15 1 4.0 2.9524230000000005 11.809692000000002 8.857269
16 1 4.0 2.9524230000000005 2.9524230000000005 5.904846000000001
17 2 -2.0 1.4762115000000002 1.4762115000000002 10.333480500000002
18 2 -2.0 1.4762115000000002 4.4286345 10.333480500000002
19 2 -2.0 1.4762115000000002 4.4286345 7.381057500000001
20 2 -2.0 1.4762115000000002 1.4762115000000002 7.381057500000001
21 2 -2.0 4.4286345 1.4762115000000002 7.381057500000001
22 2 -2.0 4.4286345 4.4286345 7.381057500000001
23 2 -2.0 4.4286345 4.4286345 10.333480500000002
24 2 -2.0 4.4286345 1.4762115000000002 10.333480500000002
25 1 4.0 0.0 5.904846000000001 0.0
26 1 4.0 0.0 8.857269 2.9524230000000005
27 1 4.0 2.9524230000000005 5.904846000000001 2.9524230000000005
28 1 4.0 2.9524230000000005 8.857269 0.0
29 2 -2.0 1.4762115000000002 7.381057500000001 4.4286345
30 2 -2.0 1.4762115000000002 10.333480500000002 4.4286345
31 2 -2.0 1.4762115000000002 10.333480500000002 1.4762115000000002
32 2 -2.0 1.4762115000000002 7.381057500000001 1.4762115000000002
33 2 -2.0 4.4286345 7.381057500000001 1.4762115000000002
34 2 -2.0 4.4286345 10.333480500000002 1.4762115000000002
35 2 -2.0 4.4286345 10.333480500000002 4.4286345
36 2 -2.0 4.4286345 7.381057500000001 4.4286345
37 1 4.0 0.0 5.904846000000001 5.904846000000001
38 1 4.0 0.0 8.857269 8.857269
39 1 4.0 2.9524230000000005 5.904846000000001 8.857269
40 1 4.0 2.9524230000000005 8.857269 5.904846000000001
41 2 -2.0 1.4762115000000002 7.381057500000001 10.333480500000002
42 2 -2.0 1.4762115000000002 10.333480500000002 10.333480500000002
43 2 -2.0 1.4762115000000002 10.333480500000002 7.381057500000001
44 2 -2.0 1.4762115000000002 7.381057500000001 7.381057500000001
45 2 -2.0 4.4286345 7.381057500000001 7.381057500000001
46 2 -2.0 4.4286345 10.333480500000002 7.381057500000001
47 2 -2.0 4.4286345 10.333480500000002 10.333480500000002
48 2 -2.0 4.4286345 7.381057500000001 10.333480500000002
49 1 4.0 5.904846000000001 0.0 0.0
50 1 4.0 5.904846000000001 2.9524230000000005 2.9524230000000005
51 1 4.0 8.857269 0.0 2.9524230000000005
52 1 4.0 8.857269 2.9524230000000005 0.0
53 2 -2.0 7.381057500000001 1.4762115000000002 4.4286345
54 2 -2.0 7.381057500000001 4.4286345 4.4286345
55 2 -2.0 7.381057500000001 4.4286345 1.4762115000000002
56 2 -2.0 7.381057500000001 1.4762115000000002 1.4762115000000002
57 2 -2.0 10.333480500000002 1.4762115000000002 1.4762115000000002
58 2 -2.0 10.333480500000002 4.4286345 1.4762115000000002
59 2 -2.0 10.333480500000002 4.4286345 4.4286345
60 2 -2.0 10.333480500000002 1.4762115000000002 4.4286345
61 1 4.0 5.904846000000001 0.0 5.904846000000001
62 1 4.0 5.904846000000001 2.9524230000000005 8.857269
63 1 4.0 8.857269 11.809692000000002 8.857269
64 1 4.0 8.857269 2.9524230000000005 5.904846000000001
65 2 -2.0 7.381057500000001 1.4762115000000002 10.333480500000002
66 2 -2.0 7.381057500000001 4.4286345 10.333480500000002
67 2 -2.0 7.381057500000001 4.4286345 7.381057500000001
68 2 -2.0 7.381057500000001 1.4762115000000002 7.381057500000001
69 2 -2.0 10.333480500000002 1.4762115000000002 7.381057500000001
70 2 -2.0 10.333480500000002 4.4286345 7.381057500000001
71 2 -2.0 10.333480500000002 4.4286345 10.333480500000002
72 2 -2.0 10.333480500000002 1.4762115000000002 10.333480500000002
73 1 4.0 5.904846000000001 5.904846000000001 0.0
74 1 4.0 5.904846000000001 8.857269 2.9524230000000005
75 1 4.0 8.857269 5.904846000000001 2.9524230000000005
76 1 4.0 8.857269 8.857269 0.0
77 2 -2.0 7.381057500000001 7.381057500000001 4.4286345
78 2 -2.0 7.381057500000001 10.333480500000002 4.4286345
79 2 -2.0 7.381057500000001 10.333480500000002 1.4762115000000002
80 2 -2.0 7.381057500000001 7.381057500000001 1.4762115000000002
81 2 -2.0 10.333480500000002 7.381057500000001 1.4762115000000002
82 2 -2.0 10.333480500000002 10.333480500000002 1.4762115000000002
83 2 -2.0 10.333480500000002 10.333480500000002 4.4286345
84 2 -2.0 10.333480500000002 7.381057500000001 4.4286345
85 1 4.0 5.904846000000001 5.904846000000001 5.904846000000001
86 1 4.0 5.904846000000001 8.857269 8.857269
87 1 4.0 8.857269 5.904846000000001 8.857269
88 1 4.0 8.857269 8.857269 5.904846000000001
89 2 -2.0 7.381057500000001 7.381057500000001 10.333480500000002
90 2 -2.0 7.381057500000001 10.333480500000002 10.333480500000002
91 2 -2.0 7.381057500000001 10.333480500000002 7.381057500000001
92 2 -2.0 7.381057500000001 7.381057500000001 7.381057500000001
93 2 -2.0 10.333480500000002 7.381057500000001 7.381057500000001
94 2 -2.0 10.333480500000002 10.333480500000002 7.381057500000001
95 2 -2.0 10.333480500000002 10.333480500000002 10.333480500000002
96 2 -2.0 10.333480500000002 7.381057500000001 10.333480500000002
