LAMMPS (2 Aug 2023 - Update 3)
# REAX potential for CeO2 system
# .....

units		real

atom_style	charge
read_data	data.CeO2
Reading data file ...
  orthogonal box = (0 0 0) to (5.46745 5.46745 5.46745)
  1 by 1 by 1 MPI processor grid
  reading atoms ...
  12 atoms
  read_data CPU = 0.000 seconds

pair_style reaxff NULL checkqeq yes
pair_coeff * * ffield.reax O Ce
WARNING: Changed valency_val to valency_boc for X (src/src/REAXFF/reaxff_ffield.cpp:299)

neighbor	2 bin
neigh_modify	every 10 delay 0 check no

fix qeq all qeq/reaxff 1 0.0 10.0 1.0e-6 reaxff

dump            1 all custom 10000 steps-ut.xyz id xu yu zu
dump            2 all custom 10000 steps-ut.CeO2 id xu yu zu q


minimize        1.0e-6 1.0e-8 1000 10000

CITE-CITE-CITE-CITE-CITE-CITE-CITE-CITE-CITE-CITE-CITE-CITE-CITE

Your simulation uses code contributions which should be cited:

- pair reaxff command: doi:10.1016/j.parco.2011.08.005

@Article{Aktulga12,
 author = {H. M. Aktulga and J. C. Fogarty and S. A. Pandit and A. Y. Grama},
 title = {Parallel Reactive Molecular Dynamics: {N}umerical Methods and Algorithmic Techniques},
 journal = {Parallel Computing},
 year =    2012,
 volume =  38,
 number =  {4--5},
 pages =   {245--259}
}

- fix qeq/reaxff command: doi:10.1016/j.parco.2011.08.005

@Article{Aktulga12,
 author = {H. M. Aktulga and J. C. Fogarty and S. A. Pandit and A. Y. Grama},
 title = {Parallel Reactive Molecular Dynamics: {N}umerical Methods and Algorithmic Techniques},
 journal = {Parallel Computing},
 year =    2012,
 volume =  38,
 pages =   {245--259}
}

CITE-CITE-CITE-CITE-CITE-CITE-CITE-CITE-CITE-CITE-CITE-CITE-CITE

Switching to 'neigh_modify every 1 delay 0 check yes' setting during minimization
Neighbor list info ...
  update: every = 1 steps, delay = 0 steps, check = yes
  max neighbors/atom: 2000, page size: 100000
  master list distance cutoff = 12
  ghost atom cutoff = 12
  binsize = 6, bins = 1 1 1
  2 neighbor lists, perpetual/occasional/extra = 2 0 0
  (1) pair reaxff, perpetual
      attributes: half, newton off, ghost
      pair build: half/bin/newtoff/ghost
      stencil: full/ghost/bin/3d
      bin: standard
  (2) fix qeq/reaxff, perpetual, copy from (1)
      attributes: half, newton off
      pair build: copy
      stencil: none
      bin: none
Per MPI rank memory allocation (min/avg/max) = 44.69 | 44.69 | 44.69 Mbytes
   Step          Temp          E_pair         E_mol          TotEng         Press     
         0   0             -903.36095      0             -903.36095      1626827.5    
         1   0             -903.36095      0             -903.36095      1626827.5    
Loop time of 0.0188036 on 1 procs for 1 steps with 12 atoms

89.2% CPU use with 1 MPI tasks x no OpenMP threads

Minimization stats:
  Stopping criterion = energy tolerance
  Energy initial, next-to-last, final = 
     -903.360945841213  -903.360945841213  -903.360945841239
  Force two-norm initial, final = 2.2884693e-12 3.0307874e-09
  Force max component initial, final = 9.2992281e-13 8.4209439e-10
  Final line search alpha, max atom move = 1 8.4209439e-10
  Iterations, force evaluations = 1 2

MPI task timing breakdown:
Section |  min time  |  avg time  |  max time  |%varavg| %total
---------------------------------------------------------------
Pair    | 0.018308   | 0.018308   | 0.018308   |   0.0 | 97.36
Neigh   | 0          | 0          | 0          |   0.0 |  0.00
Comm    | 2.0625e-05 | 2.0625e-05 | 2.0625e-05 |   0.0 |  0.11
Output  | 0          | 0          | 0          |   0.0 |  0.00
Modify  | 0.00037683 | 0.00037683 | 0.00037683 |   0.0 |  2.00
Other   |            | 9.821e-05  |            |       |  0.52

Nlocal:             12 ave          12 max          12 min
Histogram: 1 0 0 0 0 0 0 0 0 0
Nghost:           1654 ave        1654 max        1654 min
Histogram: 1 0 0 0 0 0 0 0 0 0
Neighs:           6430 ave        6430 max        6430 min
Histogram: 1 0 0 0 0 0 0 0 0 0

Total # of neighbors = 6430
Ave neighs/atom = 535.83333
Neighbor list builds = 0
Dangerous builds not checked

clear
# REAX potential for CeO2 system
# .....

units		real

atom_style	charge
read_data	data_0.95.CeO2
Reading data file ...
  orthogonal box = (0 0 0) to (10.388155 10.388155 10.388155)
  1 by 1 by 1 MPI processor grid
  reading atoms ...
  96 atoms
  read_data CPU = 0.001 seconds

pair_style reaxff NULL checkqeq yes
pair_coeff * * ffield.reax O Ce
WARNING: Changed valency_val to valency_boc for X (src/src/REAXFF/reaxff_ffield.cpp:299)

neighbor	2 bin
neigh_modify	every 10 delay 0 check no

fix qeq all qeq/reaxff 1 0.0 10.0 1.0e-6 reaxff

dump            1 all custom 10000 steps-ut.xyz id xu yu zu
dump            2 all custom 10000 steps-ut.CeO2 id xu yu zu q


minimize        1.0e-6 1.0e-8 1000 10000
Switching to 'neigh_modify every 1 delay 0 check yes' setting during minimization
Neighbor list info ...
  update: every = 1 steps, delay = 0 steps, check = yes
  max neighbors/atom: 2000, page size: 100000
  master list distance cutoff = 12
  ghost atom cutoff = 12
  binsize = 6, bins = 2 2 2
  2 neighbor lists, perpetual/occasional/extra = 2 0 0
  (1) pair reaxff, perpetual
      attributes: half, newton off, ghost
      pair build: half/bin/newtoff/ghost
      stencil: full/ghost/bin/3d
      bin: standard
  (2) fix qeq/reaxff, perpetual, copy from (1)
      attributes: half, newton off
      pair build: copy
      stencil: none
      bin: none
Per MPI rank memory allocation (min/avg/max) = 104.6 | 104.6 | 104.6 Mbytes
   Step          Temp          E_pair         E_mol          TotEng         Press     
         0   0             -775.81727      0             -775.81727      3394763.3    
         1   0             -775.81727      0             -775.81727      3394763.3    
Loop time of 0.0993387 on 1 procs for 1 steps with 96 atoms

294.5% CPU use with 1 MPI tasks x no OpenMP threads

Minimization stats:
  Stopping criterion = energy tolerance
  Energy initial, next-to-last, final = 
     -775.817266002157  -775.817266002157   -775.81726600213
  Force two-norm initial, final = 7.9022045e-11 0.00037836211
  Force max component initial, final = 2.0089111e-11 5.7982441e-05
  Final line search alpha, max atom move = 1 5.7982441e-05
  Iterations, force evaluations = 1 2

MPI task timing breakdown:
Section |  min time  |  avg time  |  max time  |%varavg| %total
---------------------------------------------------------------
Pair    | 0.093339   | 0.093339   | 0.093339   |   0.0 | 93.96
Neigh   | 0          | 0          | 0          |   0.0 |  0.00
Comm    | 6.825e-05  | 6.825e-05  | 6.825e-05  |   0.0 |  0.07
Output  | 0          | 0          | 0          |   0.0 |  0.00
Modify  | 0.0057196  | 0.0057196  | 0.0057196  |   0.0 |  5.76
Other   |            | 0.0002115  |            |       |  0.21

Nlocal:             96 ave          96 max          96 min
Histogram: 1 0 0 0 0 0 0 0 0 0
Nghost:           3747 ave        3747 max        3747 min
Histogram: 1 0 0 0 0 0 0 0 0 0
Neighs:          57469 ave       57469 max       57469 min
Histogram: 1 0 0 0 0 0 0 0 0 0

Total # of neighbors = 57469
Ave neighs/atom = 598.63542
Neighbor list builds = 0
Dangerous builds not checked

clear
# REAX potential for CeO2 system
# .....

units		real

atom_style	charge
read_data	data_0.96.CeO2
Reading data file ...
  orthogonal box = (0 0 0) to (10.497504 10.497504 10.497504)
  1 by 1 by 1 MPI processor grid
  reading atoms ...
  96 atoms
  read_data CPU = 0.000 seconds

pair_style reaxff NULL checkqeq yes
pair_coeff * * ffield.reax O Ce
WARNING: Changed valency_val to valency_boc for X (src/src/REAXFF/reaxff_ffield.cpp:299)

neighbor	2 bin
neigh_modify	every 10 delay 0 check no

fix qeq all qeq/reaxff 1 0.0 10.0 1.0e-6 reaxff

dump            1 all custom 10000 steps-ut.xyz id xu yu zu
dump            2 all custom 10000 steps-ut.CeO2 id xu yu zu q


minimize        1.0e-6 1.0e-8 1000 10000
Switching to 'neigh_modify every 1 delay 0 check yes' setting during minimization
Neighbor list info ...
  update: every = 1 steps, delay = 0 steps, check = yes
  max neighbors/atom: 2000, page size: 100000
  master list distance cutoff = 12
  ghost atom cutoff = 12
  binsize = 6, bins = 2 2 2
  2 neighbor lists, perpetual/occasional/extra = 2 0 0
  (1) pair reaxff, perpetual
      attributes: half, newton off, ghost
      pair build: half/bin/newtoff/ghost
      stencil: full/ghost/bin/3d
      bin: standard
  (2) fix qeq/reaxff, perpetual, copy from (1)
      attributes: half, newton off
      pair build: copy
      stencil: none
      bin: none
Per MPI rank memory allocation (min/avg/max) = 103.8 | 103.8 | 103.8 Mbytes
   Step          Temp          E_pair         E_mol          TotEng         Press     
         0   0             -2416.5078      0             -2416.5078      2912060.1    
         1   0             -2416.5078      0             -2416.5078      2912060.1    
Loop time of 0.0658267 on 1 procs for 1 steps with 96 atoms

86.9% CPU use with 1 MPI tasks x no OpenMP threads

Minimization stats:
  Stopping criterion = energy tolerance
  Energy initial, next-to-last, final = 
     -2416.50778422889  -2416.50778422889  -2416.50778422966
  Force two-norm initial, final = 3.7795252e-11 5.7655413e-06
  Force max component initial, final = 8.4678375e-12 7.795123e-07
  Final line search alpha, max atom move = 1 7.795123e-07
  Iterations, force evaluations = 1 1

MPI task timing breakdown:
Section |  min time  |  avg time  |  max time  |%varavg| %total
---------------------------------------------------------------
Pair    | 0.063254   | 0.063254   | 0.063254   |   0.0 | 96.09
Neigh   | 0          | 0          | 0          |   0.0 |  0.00
Comm    | 3.0499e-05 | 3.0499e-05 | 3.0499e-05 |   0.0 |  0.05
Output  | 0          | 0          | 0          |   0.0 |  0.00
Modify  | 0.0023318  | 0.0023318  | 0.0023318  |   0.0 |  3.54
Other   |            | 0.0002102  |            |       |  0.32

Nlocal:             96 ave          96 max          96 min
Histogram: 1 0 0 0 0 0 0 0 0 0
Nghost:           3747 ave        3747 max        3747 min
Histogram: 1 0 0 0 0 0 0 0 0 0
Neighs:          54397 ave       54397 max       54397 min
Histogram: 1 0 0 0 0 0 0 0 0 0

Total # of neighbors = 54397
Ave neighs/atom = 566.63542
Neighbor list builds = 0
Dangerous builds not checked

clear
# REAX potential for CeO2 system
# .....

units		real

atom_style	charge
read_data	data_0.97.CeO2
Reading data file ...
  orthogonal box = (0 0 0) to (10.606853 10.606853 10.606853)
  1 by 1 by 1 MPI processor grid
  reading atoms ...
  96 atoms
  read_data CPU = 0.000 seconds

pair_style reaxff NULL checkqeq yes
pair_coeff * * ffield.reax O Ce
WARNING: Changed valency_val to valency_boc for X (src/src/REAXFF/reaxff_ffield.cpp:299)

neighbor	2 bin
neigh_modify	every 10 delay 0 check no

fix qeq all qeq/reaxff 1 0.0 10.0 1.0e-6 reaxff

dump            1 all custom 10000 steps-ut.xyz id xu yu zu
dump            2 all custom 10000 steps-ut.CeO2 id xu yu zu q


minimize        1.0e-6 1.0e-8 1000 10000
Switching to 'neigh_modify every 1 delay 0 check yes' setting during minimization
Neighbor list info ...
  update: every = 1 steps, delay = 0 steps, check = yes
  max neighbors/atom: 2000, page size: 100000
  master list distance cutoff = 12
  ghost atom cutoff = 12
  binsize = 6, bins = 2 2 2
  2 neighbor lists, perpetual/occasional/extra = 2 0 0
  (1) pair reaxff, perpetual
      attributes: half, newton off, ghost
      pair build: half/bin/newtoff/ghost
      stencil: full/ghost/bin/3d
      bin: standard
  (2) fix qeq/reaxff, perpetual, copy from (1)
      attributes: half, newton off
      pair build: copy
      stencil: none
      bin: none
Per MPI rank memory allocation (min/avg/max) = 103.7 | 103.7 | 103.7 Mbytes
   Step          Temp          E_pair         E_mol          TotEng         Press     
         0   0             -3855.4322      0             -3855.4322      2505231.1    
         1   0             -3855.4322      0             -3855.4322      2505231.1    
Loop time of 0.0591219 on 1 procs for 1 steps with 96 atoms

86.5% CPU use with 1 MPI tasks x no OpenMP threads

Minimization stats:
  Stopping criterion = energy tolerance
  Energy initial, next-to-last, final = 
      -3855.4321731856   -3855.4321731856  -3855.43217318649
  Force two-norm initial, final = 1.9126371e-11 4.5715014e-06
  Force max component initial, final = 2.8761438e-12 4.9211931e-07
  Final line search alpha, max atom move = 1 4.9211931e-07
  Iterations, force evaluations = 1 1

MPI task timing breakdown:
Section |  min time  |  avg time  |  max time  |%varavg| %total
---------------------------------------------------------------
Pair    | 0.056976   | 0.056976   | 0.056976   |   0.0 | 96.37
Neigh   | 0          | 0          | 0          |   0.0 |  0.00
Comm    | 3.0209e-05 | 3.0209e-05 | 3.0209e-05 |   0.0 |  0.05
Output  | 0          | 0          | 0          |   0.0 |  0.00
Modify  | 0.0019018  | 0.0019018  | 0.0019018  |   0.0 |  3.22
Other   |            | 0.000214   |            |       |  0.36

Nlocal:             96 ave          96 max          96 min
Histogram: 1 0 0 0 0 0 0 0 0 0
Nghost:           3747 ave        3747 max        3747 min
Histogram: 1 0 0 0 0 0 0 0 0 0
Neighs:          49831 ave       49831 max       49831 min
Histogram: 1 0 0 0 0 0 0 0 0 0

Total # of neighbors = 49831
Ave neighs/atom = 519.07292
Neighbor list builds = 0
Dangerous builds not checked

clear
# REAX potential for CeO2 system
# .....

units		real

atom_style	charge
read_data	data_0.98.CeO2
Reading data file ...
  orthogonal box = (0 0 0) to (10.716202 10.716202 10.716202)
  1 by 1 by 1 MPI processor grid
  reading atoms ...
  96 atoms
  read_data CPU = 0.000 seconds

pair_style reaxff NULL checkqeq yes
pair_coeff * * ffield.reax O Ce
WARNING: Changed valency_val to valency_boc for X (src/src/REAXFF/reaxff_ffield.cpp:299)

neighbor	2 bin
neigh_modify	every 10 delay 0 check no

fix qeq all qeq/reaxff 1 0.0 10.0 1.0e-6 reaxff

dump            1 all custom 10000 steps-ut.xyz id xu yu zu
dump            2 all custom 10000 steps-ut.CeO2 id xu yu zu q


minimize        1.0e-6 1.0e-8 1000 10000
Switching to 'neigh_modify every 1 delay 0 check yes' setting during minimization
Neighbor list info ...
  update: every = 1 steps, delay = 0 steps, check = yes
  max neighbors/atom: 2000, page size: 100000
  master list distance cutoff = 12
  ghost atom cutoff = 12
  binsize = 6, bins = 2 2 2
  2 neighbor lists, perpetual/occasional/extra = 2 0 0
  (1) pair reaxff, perpetual
      attributes: half, newton off, ghost
      pair build: half/bin/newtoff/ghost
      stencil: full/ghost/bin/3d
      bin: standard
  (2) fix qeq/reaxff, perpetual, copy from (1)
      attributes: half, newton off
      pair build: copy
      stencil: none
      bin: none
Per MPI rank memory allocation (min/avg/max) = 74.54 | 74.54 | 74.54 Mbytes
   Step          Temp          E_pair         E_mol          TotEng         Press     
         0   0             -5121.2175      0             -5121.2175      2162669.7    
         1   0             -5121.2175      0             -5121.2175      2162669.7    
Loop time of 0.0378383 on 1 procs for 1 steps with 96 atoms

90.8% CPU use with 1 MPI tasks x no OpenMP threads

Minimization stats:
  Stopping criterion = energy tolerance
  Energy initial, next-to-last, final = 
     -5121.21749792589  -5121.21749792589  -5121.21749792629
  Force two-norm initial, final = 1.8875679e-11 4.1637733e-06
  Force max component initial, final = 2.7235991e-12 3.7957601e-07
  Final line search alpha, max atom move = 1 3.7957601e-07
  Iterations, force evaluations = 1 1

MPI task timing breakdown:
Section |  min time  |  avg time  |  max time  |%varavg| %total
---------------------------------------------------------------
Pair    | 0.036033   | 0.036033   | 0.036033   |   0.0 | 95.23
Neigh   | 0          | 0          | 0          |   0.0 |  0.00
Comm    | 1.8292e-05 | 1.8292e-05 | 1.8292e-05 |   0.0 |  0.05
Output  | 0          | 0          | 0          |   0.0 |  0.00
Modify  | 0.0015975  | 0.0015975  | 0.0015975  |   0.0 |  4.22
Other   |            | 0.0001898  |            |       |  0.50

Nlocal:             96 ave          96 max          96 min
Histogram: 1 0 0 0 0 0 0 0 0 0
Nghost:           2731 ave        2731 max        2731 min
Histogram: 1 0 0 0 0 0 0 0 0 0
Neighs:          49831 ave       49831 max       49831 min
Histogram: 1 0 0 0 0 0 0 0 0 0

Total # of neighbors = 49831
Ave neighs/atom = 519.07292
Neighbor list builds = 0
Dangerous builds not checked

clear
# REAX potential for CeO2 system
# .....

units		real

atom_style	charge
read_data	data_0.99.CeO2
Reading data file ...
  orthogonal box = (0 0 0) to (10.825551 10.825551 10.825551)
  1 by 1 by 1 MPI processor grid
  reading atoms ...
  96 atoms
  read_data CPU = 0.000 seconds

pair_style reaxff NULL checkqeq yes
pair_coeff * * ffield.reax O Ce
WARNING: Changed valency_val to valency_boc for X (src/src/REAXFF/reaxff_ffield.cpp:299)

neighbor	2 bin
neigh_modify	every 10 delay 0 check no

fix qeq all qeq/reaxff 1 0.0 10.0 1.0e-6 reaxff

dump            1 all custom 10000 steps-ut.xyz id xu yu zu
dump            2 all custom 10000 steps-ut.CeO2 id xu yu zu q


minimize        1.0e-6 1.0e-8 1000 10000
Switching to 'neigh_modify every 1 delay 0 check yes' setting during minimization
Neighbor list info ...
  update: every = 1 steps, delay = 0 steps, check = yes
  max neighbors/atom: 2000, page size: 100000
  master list distance cutoff = 12
  ghost atom cutoff = 12
  binsize = 6, bins = 2 2 2
  2 neighbor lists, perpetual/occasional/extra = 2 0 0
  (1) pair reaxff, perpetual
      attributes: half, newton off, ghost
      pair build: half/bin/newtoff/ghost
      stencil: full/ghost/bin/3d
      bin: standard
  (2) fix qeq/reaxff, perpetual, copy from (1)
      attributes: half, newton off
      pair build: copy
      stencil: none
      bin: none
Per MPI rank memory allocation (min/avg/max) = 74.51 | 74.51 | 74.51 Mbytes
   Step          Temp          E_pair         E_mol          TotEng         Press     
         0   0             -6238.2672      0             -6238.2672      1873123.4    
         1   0             -6238.2672      0             -6238.2672      1873123.4    
Loop time of 0.0527383 on 1 procs for 1 steps with 96 atoms

94.7% CPU use with 1 MPI tasks x no OpenMP threads

Minimization stats:
  Stopping criterion = linesearch alpha is zero
  Energy initial, next-to-last, final = 
     -6238.26723858737  -6238.26723858737  -6238.26723858681
  Force two-norm initial, final = 7.5496537e-12 2.2296335e-05
  Force max component initial, final = 1.5205615e-12 3.2645567e-06
  Final line search alpha, max atom move = 0.5 1.6322784e-06
  Iterations, force evaluations = 1 2

MPI task timing breakdown:
Section |  min time  |  avg time  |  max time  |%varavg| %total
---------------------------------------------------------------
Pair    | 0.050282   | 0.050282   | 0.050282   |   0.0 | 95.34
Neigh   | 0          | 0          | 0          |   0.0 |  0.00
Comm    | 2.896e-05  | 2.896e-05  | 2.896e-05  |   0.0 |  0.05
Output  | 0          | 0          | 0          |   0.0 |  0.00
Modify  | 0.0022474  | 0.0022474  | 0.0022474  |   0.0 |  4.26
Other   |            | 0.0001799  |            |       |  0.34

Nlocal:             96 ave          96 max          96 min
Histogram: 1 0 0 0 0 0 0 0 0 0
Nghost:           2731 ave        2731 max        2731 min
Histogram: 1 0 0 0 0 0 0 0 0 0
Neighs:          47527 ave       47527 max       47527 min
Histogram: 1 0 0 0 0 0 0 0 0 0

Total # of neighbors = 47527
Ave neighs/atom = 495.07292
Neighbor list builds = 0
Dangerous builds not checked

clear
# REAX potential for CeO2 system
# .....

units		real

atom_style	charge
read_data	data_1.00.CeO2
Reading data file ...
  orthogonal box = (0 0 0) to (10.9349 10.9349 10.9349)
  1 by 1 by 1 MPI processor grid
  reading atoms ...
  96 atoms
  read_data CPU = 0.000 seconds

pair_style reaxff NULL checkqeq yes
pair_coeff * * ffield.reax O Ce
WARNING: Changed valency_val to valency_boc for X (src/src/REAXFF/reaxff_ffield.cpp:299)

neighbor	2 bin
neigh_modify	every 10 delay 0 check no

fix qeq all qeq/reaxff 1 0.0 10.0 1.0e-6 reaxff

dump            1 all custom 10000 steps-ut.xyz id xu yu zu
dump            2 all custom 10000 steps-ut.CeO2 id xu yu zu q


minimize        1.0e-6 1.0e-8 1000 10000
Switching to 'neigh_modify every 1 delay 0 check yes' setting during minimization
Neighbor list info ...
  update: every = 1 steps, delay = 0 steps, check = yes
  max neighbors/atom: 2000, page size: 100000
  master list distance cutoff = 12
  ghost atom cutoff = 12
  binsize = 6, bins = 2 2 2
  2 neighbor lists, perpetual/occasional/extra = 2 0 0
  (1) pair reaxff, perpetual
      attributes: half, newton off, ghost
      pair build: half/bin/newtoff/ghost
      stencil: full/ghost/bin/3d
      bin: standard
  (2) fix qeq/reaxff, perpetual, copy from (1)
      attributes: half, newton off
      pair build: copy
      stencil: none
      bin: none
Per MPI rank memory allocation (min/avg/max) = 74.51 | 74.51 | 74.51 Mbytes
   Step          Temp          E_pair         E_mol          TotEng         Press     
         0   0             -7226.8876      0             -7226.8876      1626827.5    
         1   0             -7226.8876      0             -7226.8876      1626827.5    
Loop time of 0.0414084 on 1 procs for 1 steps with 96 atoms

88.4% CPU use with 1 MPI tasks x no OpenMP threads

Minimization stats:
  Stopping criterion = energy tolerance
  Energy initial, next-to-last, final = 
     -7226.88756672688  -7226.88756672688  -7226.88756672789
  Force two-norm initial, final = 8.6934038e-12 1.159372e-06
  Force max component initial, final = 1.8454127e-12 1.343014e-07
  Final line search alpha, max atom move = 1 1.343014e-07
  Iterations, force evaluations = 1 1

MPI task timing breakdown:
Section |  min time  |  avg time  |  max time  |%varavg| %total
---------------------------------------------------------------
Pair    | 0.039437   | 0.039437   | 0.039437   |   0.0 | 95.24
Neigh   | 0          | 0          | 0          |   0.0 |  0.00
Comm    | 6.3582e-05 | 6.3582e-05 | 6.3582e-05 |   0.0 |  0.15
Output  | 0          | 0          | 0          |   0.0 |  0.00
Modify  | 0.0016886  | 0.0016886  | 0.0016886  |   0.0 |  4.08
Other   |            | 0.0002195  |            |       |  0.53

Nlocal:             96 ave          96 max          96 min
Histogram: 1 0 0 0 0 0 0 0 0 0
Nghost:           2731 ave        2731 max        2731 min
Histogram: 1 0 0 0 0 0 0 0 0 0
Neighs:          47527 ave       47527 max       47527 min
Histogram: 1 0 0 0 0 0 0 0 0 0

Total # of neighbors = 47527
Ave neighs/atom = 495.07292
Neighbor list builds = 0
Dangerous builds not checked

clear
# REAX potential for CeO2 system
# .....

units		real

atom_style	charge
read_data	data_1.01.CeO2
Reading data file ...
  orthogonal box = (0 0 0) to (11.044249 11.044249 11.044249)
  1 by 1 by 1 MPI processor grid
  reading atoms ...
  96 atoms
  read_data CPU = 0.000 seconds

pair_style reaxff NULL checkqeq yes
pair_coeff * * ffield.reax O Ce
WARNING: Changed valency_val to valency_boc for X (src/src/REAXFF/reaxff_ffield.cpp:299)

neighbor	2 bin
neigh_modify	every 10 delay 0 check no

fix qeq all qeq/reaxff 1 0.0 10.0 1.0e-6 reaxff

dump            1 all custom 10000 steps-ut.xyz id xu yu zu
dump            2 all custom 10000 steps-ut.CeO2 id xu yu zu q


minimize        1.0e-6 1.0e-8 1000 10000
Switching to 'neigh_modify every 1 delay 0 check yes' setting during minimization
Neighbor list info ...
  update: every = 1 steps, delay = 0 steps, check = yes
  max neighbors/atom: 2000, page size: 100000
  master list distance cutoff = 12
  ghost atom cutoff = 12
  binsize = 6, bins = 2 2 2
  2 neighbor lists, perpetual/occasional/extra = 2 0 0
  (1) pair reaxff, perpetual
      attributes: half, newton off, ghost
      pair build: half/bin/newtoff/ghost
      stencil: full/ghost/bin/3d
      bin: standard
  (2) fix qeq/reaxff, perpetual, copy from (1)
      attributes: half, newton off
      pair build: copy
      stencil: none
      bin: none
Per MPI rank memory allocation (min/avg/max) = 73.72 | 73.72 | 73.72 Mbytes
   Step          Temp          E_pair         E_mol          TotEng         Press     
         0   0             -8103.6921      0             -8103.6921      1415436.6    
         1   0             -8103.6921      0             -8103.6921      1415436.6    
Loop time of 0.0416299 on 1 procs for 1 steps with 96 atoms

85.1% CPU use with 1 MPI tasks x no OpenMP threads

Minimization stats:
  Stopping criterion = energy tolerance
  Energy initial, next-to-last, final = 
     -8103.69210138968  -8103.69210138968  -8103.69210138995
  Force two-norm initial, final = 1.5397721e-11 2.2395641e-06
  Force max component initial, final = 2.1380814e-12 2.0695691e-07
  Final line search alpha, max atom move = 1 2.0695691e-07
  Iterations, force evaluations = 1 1

MPI task timing breakdown:
Section |  min time  |  avg time  |  max time  |%varavg| %total
---------------------------------------------------------------
Pair    | 0.039774   | 0.039774   | 0.039774   |   0.0 | 95.54
Neigh   | 0          | 0          | 0          |   0.0 |  0.00
Comm    | 1.9167e-05 | 1.9167e-05 | 1.9167e-05 |   0.0 |  0.05
Output  | 0          | 0          | 0          |   0.0 |  0.00
Modify  | 0.0016534  | 0.0016534  | 0.0016534  |   0.0 |  3.97
Other   |            | 0.0001831  |            |       |  0.44

Nlocal:             96 ave          96 max          96 min
Histogram: 1 0 0 0 0 0 0 0 0 0
Nghost:           2731 ave        2731 max        2731 min
Histogram: 1 0 0 0 0 0 0 0 0 0
Neighs:          46027 ave       46027 max       46027 min
Histogram: 1 0 0 0 0 0 0 0 0 0

Total # of neighbors = 46027
Ave neighs/atom = 479.44792
Neighbor list builds = 0
Dangerous builds not checked

clear
# REAX potential for CeO2 system
# .....

units		real

atom_style	charge
read_data	data_1.02.CeO2
Reading data file ...
  orthogonal box = (0 0 0) to (11.153598 11.153598 11.153598)
  1 by 1 by 1 MPI processor grid
  reading atoms ...
  96 atoms
  read_data CPU = 0.000 seconds

pair_style reaxff NULL checkqeq yes
pair_coeff * * ffield.reax O Ce
WARNING: Changed valency_val to valency_boc for X (src/src/REAXFF/reaxff_ffield.cpp:299)

neighbor	2 bin
neigh_modify	every 10 delay 0 check no

fix qeq all qeq/reaxff 1 0.0 10.0 1.0e-6 reaxff

dump            1 all custom 10000 steps-ut.xyz id xu yu zu
dump            2 all custom 10000 steps-ut.CeO2 id xu yu zu q


minimize        1.0e-6 1.0e-8 1000 10000
Switching to 'neigh_modify every 1 delay 0 check yes' setting during minimization
Neighbor list info ...
  update: every = 1 steps, delay = 0 steps, check = yes
  max neighbors/atom: 2000, page size: 100000
  master list distance cutoff = 12
  ghost atom cutoff = 12
  binsize = 6, bins = 2 2 2
  2 neighbor lists, perpetual/occasional/extra = 2 0 0
  (1) pair reaxff, perpetual
      attributes: half, newton off, ghost
      pair build: half/bin/newtoff/ghost
      stencil: full/ghost/bin/3d
      bin: standard
  (2) fix qeq/reaxff, perpetual, copy from (1)
      attributes: half, newton off
      pair build: copy
      stencil: none
      bin: none
Per MPI rank memory allocation (min/avg/max) = 73.68 | 73.68 | 73.68 Mbytes
   Step          Temp          E_pair         E_mol          TotEng         Press     
         0   0             -8882.0853      0             -8882.0853      1232137      
         1   0             -8882.0853      0             -8882.0853      1232137      
Loop time of 0.0958485 on 1 procs for 1 steps with 96 atoms

59.7% CPU use with 1 MPI tasks x no OpenMP threads

Minimization stats:
  Stopping criterion = energy tolerance
  Energy initial, next-to-last, final = 
      -8882.0853115752   -8882.0853115752   -8882.0853115755
  Force two-norm initial, final = 1.1964687e-11 9.1170231e-06
  Force max component initial, final = 1.7550406e-12 1.3207843e-06
  Final line search alpha, max atom move = 1 1.3207843e-06
  Iterations, force evaluations = 1 2

MPI task timing breakdown:
Section |  min time  |  avg time  |  max time  |%varavg| %total
---------------------------------------------------------------
Pair    | 0.09328    | 0.09328    | 0.09328    |   0.0 | 97.32
Neigh   | 0          | 0          | 0          |   0.0 |  0.00
Comm    | 3.0959e-05 | 3.0959e-05 | 3.0959e-05 |   0.0 |  0.03
Output  | 0          | 0          | 0          |   0.0 |  0.00
Modify  | 0.00234    | 0.00234    | 0.00234    |   0.0 |  2.44
Other   |            | 0.0001977  |            |       |  0.21

Nlocal:             96 ave          96 max          96 min
Histogram: 1 0 0 0 0 0 0 0 0 0
Nghost:           2731 ave        2731 max        2731 min
Histogram: 1 0 0 0 0 0 0 0 0 0
Neighs:          42522 ave       42522 max       42522 min
Histogram: 1 0 0 0 0 0 0 0 0 0

Total # of neighbors = 42522
Ave neighs/atom = 442.9375
Neighbor list builds = 0
Dangerous builds not checked

clear
# REAX potential for CeO2 system
# .....

units		real

atom_style	charge
read_data	data_1.03.CeO2
Reading data file ...
  orthogonal box = (0 0 0) to (11.262947 11.262947 11.262947)
  1 by 1 by 1 MPI processor grid
  reading atoms ...
  96 atoms
  read_data CPU = 0.001 seconds

pair_style reaxff NULL checkqeq yes
pair_coeff * * ffield.reax O Ce
WARNING: Changed valency_val to valency_boc for X (src/src/REAXFF/reaxff_ffield.cpp:299)

neighbor	2 bin
neigh_modify	every 10 delay 0 check no

fix qeq all qeq/reaxff 1 0.0 10.0 1.0e-6 reaxff

dump            1 all custom 10000 steps-ut.xyz id xu yu zu
dump            2 all custom 10000 steps-ut.CeO2 id xu yu zu q


minimize        1.0e-6 1.0e-8 1000 10000
Switching to 'neigh_modify every 1 delay 0 check yes' setting during minimization
Neighbor list info ...
  update: every = 1 steps, delay = 0 steps, check = yes
  max neighbors/atom: 2000, page size: 100000
  master list distance cutoff = 12
  ghost atom cutoff = 12
  binsize = 6, bins = 2 2 2
  2 neighbor lists, perpetual/occasional/extra = 2 0 0
  (1) pair reaxff, perpetual
      attributes: half, newton off, ghost
      pair build: half/bin/newtoff/ghost
      stencil: full/ghost/bin/3d
      bin: standard
  (2) fix qeq/reaxff, perpetual, copy from (1)
      attributes: half, newton off
      pair build: copy
      stencil: none
      bin: none
Per MPI rank memory allocation (min/avg/max) = 73.68 | 73.68 | 73.68 Mbytes
   Step          Temp          E_pair         E_mol          TotEng         Press     
         0   0             -9572.8622      0             -9572.8622      1071638.3    
         1   0             -9572.8622      0             -9572.8622      1071638.3    
Loop time of 0.054624 on 1 procs for 1 steps with 96 atoms

94.0% CPU use with 1 MPI tasks x no OpenMP threads

Minimization stats:
  Stopping criterion = linesearch alpha is zero
  Energy initial, next-to-last, final = 
     -9572.86221080933  -9572.86221080933  -9572.86221080906
  Force two-norm initial, final = 9.6717734e-12 1.8971704e-05
  Force max component initial, final = 1.8189894e-12 2.5769954e-06
  Final line search alpha, max atom move = 0.5 1.2884977e-06
  Iterations, force evaluations = 1 2

MPI task timing breakdown:
Section |  min time  |  avg time  |  max time  |%varavg| %total
---------------------------------------------------------------
Pair    | 0.05243    | 0.05243    | 0.05243    |   0.0 | 95.98
Neigh   | 0          | 0          | 0          |   0.0 |  0.00
Comm    | 3.125e-05  | 3.125e-05  | 3.125e-05  |   0.0 |  0.06
Output  | 0          | 0          | 0          |   0.0 |  0.00
Modify  | 0.0019675  | 0.0019675  | 0.0019675  |   0.0 |  3.60
Other   |            | 0.0001954  |            |       |  0.36

Nlocal:             96 ave          96 max          96 min
Histogram: 1 0 0 0 0 0 0 0 0 0
Nghost:           2731 ave        2731 max        2731 min
Histogram: 1 0 0 0 0 0 0 0 0 0
Neighs:          42522 ave       42522 max       42522 min
Histogram: 1 0 0 0 0 0 0 0 0 0

Total # of neighbors = 42522
Ave neighs/atom = 442.9375
Neighbor list builds = 0
Dangerous builds not checked

clear
# REAX potential for CeO2 system
# .....

units		real

atom_style	charge
read_data	data_1.04.CeO2
Reading data file ...
  orthogonal box = (0 0 0) to (11.372296 11.372296 11.372296)
  1 by 1 by 1 MPI processor grid
  reading atoms ...
  96 atoms
  read_data CPU = 0.000 seconds

pair_style reaxff NULL checkqeq yes
pair_coeff * * ffield.reax O Ce
WARNING: Changed valency_val to valency_boc for X (src/src/REAXFF/reaxff_ffield.cpp:299)

neighbor	2 bin
neigh_modify	every 10 delay 0 check no

fix qeq all qeq/reaxff 1 0.0 10.0 1.0e-6 reaxff

dump            1 all custom 10000 steps-ut.xyz id xu yu zu
dump            2 all custom 10000 steps-ut.CeO2 id xu yu zu q


minimize        1.0e-6 1.0e-8 1000 10000
Switching to 'neigh_modify every 1 delay 0 check yes' setting during minimization
Neighbor list info ...
  update: every = 1 steps, delay = 0 steps, check = yes
  max neighbors/atom: 2000, page size: 100000
  master list distance cutoff = 12
  ghost atom cutoff = 12
  binsize = 6, bins = 2 2 2
  2 neighbor lists, perpetual/occasional/extra = 2 0 0
  (1) pair reaxff, perpetual
      attributes: half, newton off, ghost
      pair build: half/bin/newtoff/ghost
      stencil: full/ghost/bin/3d
      bin: standard
  (2) fix qeq/reaxff, perpetual, copy from (1)
      attributes: half, newton off
      pair build: copy
      stencil: none
      bin: none
Per MPI rank memory allocation (min/avg/max) = 73.63 | 73.63 | 73.63 Mbytes
   Step          Temp          E_pair         E_mol          TotEng         Press     
         0   0             -10184.78       0             -10184.78       929777.02    
         1   0             -10184.78       0             -10184.78       929777.02    
Loop time of 0.0530222 on 1 procs for 1 steps with 96 atoms

94.9% CPU use with 1 MPI tasks x no OpenMP threads

Minimization stats:
  Stopping criterion = linesearch alpha is zero
  Energy initial, next-to-last, final = 
     -10184.7800514085  -10184.7800514085  -10184.7800514081
  Force two-norm initial, final = 1.5056847e-11 4.0161714e-05
  Force max component initial, final = 2.0250468e-12 4.8907407e-06
  Final line search alpha, max atom move = 0.5 2.4453704e-06
  Iterations, force evaluations = 1 2

MPI task timing breakdown:
Section |  min time  |  avg time  |  max time  |%varavg| %total
---------------------------------------------------------------
Pair    | 0.050873   | 0.050873   | 0.050873   |   0.0 | 95.95
Neigh   | 0          | 0          | 0          |   0.0 |  0.00
Comm    | 2.8582e-05 | 2.8582e-05 | 2.8582e-05 |   0.0 |  0.05
Output  | 0          | 0          | 0          |   0.0 |  0.00
Modify  | 0.0019202  | 0.0019202  | 0.0019202  |   0.0 |  3.62
Other   |            | 0.0002006  |            |       |  0.38

Nlocal:             96 ave          96 max          96 min
Histogram: 1 0 0 0 0 0 0 0 0 0
Nghost:           2731 ave        2731 max        2731 min
Histogram: 1 0 0 0 0 0 0 0 0 0
Neighs:          39102 ave       39102 max       39102 min
Histogram: 1 0 0 0 0 0 0 0 0 0

Total # of neighbors = 39102
Ave neighs/atom = 407.3125
Neighbor list builds = 0
Dangerous builds not checked

clear
# REAX potential for CeO2 system
# .....

units		real

atom_style	charge
read_data	data_1.05.CeO2
Reading data file ...
  orthogonal box = (0 0 0) to (11.481645 11.481645 11.481645)
  1 by 1 by 1 MPI processor grid
  reading atoms ...
  96 atoms
  read_data CPU = 0.000 seconds

pair_style reaxff NULL checkqeq yes
pair_coeff * * ffield.reax O Ce
WARNING: Changed valency_val to valency_boc for X (src/src/REAXFF/reaxff_ffield.cpp:299)

neighbor	2 bin
neigh_modify	every 10 delay 0 check no

fix qeq all qeq/reaxff 1 0.0 10.0 1.0e-6 reaxff

dump            1 all custom 10000 steps-ut.xyz id xu yu zu
dump            2 all custom 10000 steps-ut.CeO2 id xu yu zu q


minimize        1.0e-6 1.0e-8 1000 10000
Switching to 'neigh_modify every 1 delay 0 check yes' setting during minimization
Neighbor list info ...
  update: every = 1 steps, delay = 0 steps, check = yes
  max neighbors/atom: 2000, page size: 100000
  master list distance cutoff = 12
  ghost atom cutoff = 12
  binsize = 6, bins = 2 2 2
  2 neighbor lists, perpetual/occasional/extra = 2 0 0
  (1) pair reaxff, perpetual
      attributes: half, newton off, ghost
      pair build: half/bin/newtoff/ghost
      stencil: full/ghost/bin/3d
      bin: standard
  (2) fix qeq/reaxff, perpetual, copy from (1)
      attributes: half, newton off
      pair build: copy
      stencil: none
      bin: none
Per MPI rank memory allocation (min/avg/max) = 73.63 | 73.63 | 73.63 Mbytes
   Step          Temp          E_pair         E_mol          TotEng         Press     
         0   0             -10724.957      0             -10724.957      803328.95    
         1   0             -10724.957      0             -10724.957      803328.95    
Loop time of 0.0487838 on 1 procs for 1 steps with 96 atoms

92.2% CPU use with 1 MPI tasks x no OpenMP threads

Minimization stats:
  Stopping criterion = linesearch alpha is zero
  Energy initial, next-to-last, final = 
     -10724.9570294047  -10724.9570294047  -10724.9570294049
  Force two-norm initial, final = 1.0108523e-11 1.4802677e-05
  Force max component initial, final = 2.4016344e-12 2.2366853e-06
  Final line search alpha, max atom move = 0.5 1.1183427e-06
  Iterations, force evaluations = 1 2

MPI task timing breakdown:
Section |  min time  |  avg time  |  max time  |%varavg| %total
---------------------------------------------------------------
Pair    | 0.046702   | 0.046702   | 0.046702   |   0.0 | 95.73
Neigh   | 0          | 0          | 0          |   0.0 |  0.00
Comm    | 2.8583e-05 | 2.8583e-05 | 2.8583e-05 |   0.0 |  0.06
Output  | 0          | 0          | 0          |   0.0 |  0.00
Modify  | 0.001855   | 0.001855   | 0.001855   |   0.0 |  3.80
Other   |            | 0.0001981  |            |       |  0.41

Nlocal:             96 ave          96 max          96 min
Histogram: 1 0 0 0 0 0 0 0 0 0
Nghost:           2731 ave        2731 max        2731 min
Histogram: 1 0 0 0 0 0 0 0 0 0
Neighs:          39102 ave       39102 max       39102 min
Histogram: 1 0 0 0 0 0 0 0 0 0

Total # of neighbors = 39102
Ave neighs/atom = 407.3125
Neighbor list builds = 0
Dangerous builds not checked

clear
# REAX potential for CeO2 system
# .....

units		real

atom_style	charge
read_data	data_1.06.CeO2
Reading data file ...
  orthogonal box = (0 0 0) to (11.590994 11.590994 11.590994)
  1 by 1 by 1 MPI processor grid
  reading atoms ...
  96 atoms
  read_data CPU = 0.000 seconds

pair_style reaxff NULL checkqeq yes
pair_coeff * * ffield.reax O Ce
WARNING: Changed valency_val to valency_boc for X (src/src/REAXFF/reaxff_ffield.cpp:299)

neighbor	2 bin
neigh_modify	every 10 delay 0 check no

fix qeq all qeq/reaxff 1 0.0 10.0 1.0e-6 reaxff

dump            1 all custom 10000 steps-ut.xyz id xu yu zu
dump            2 all custom 10000 steps-ut.CeO2 id xu yu zu q


minimize        1.0e-6 1.0e-8 1000 10000
Switching to 'neigh_modify every 1 delay 0 check yes' setting during minimization
Neighbor list info ...
  update: every = 1 steps, delay = 0 steps, check = yes
  max neighbors/atom: 2000, page size: 100000
  master list distance cutoff = 12
  ghost atom cutoff = 12
  binsize = 6, bins = 2 2 2
  2 neighbor lists, perpetual/occasional/extra = 2 0 0
  (1) pair reaxff, perpetual
      attributes: half, newton off, ghost
      pair build: half/bin/newtoff/ghost
      stencil: full/ghost/bin/3d
      bin: standard
  (2) fix qeq/reaxff, perpetual, copy from (1)
      attributes: half, newton off
      pair build: copy
      stencil: none
      bin: none
Per MPI rank memory allocation (min/avg/max) = 62.33 | 62.33 | 62.33 Mbytes
   Step          Temp          E_pair         E_mol          TotEng         Press     
         0   0             -11199.353      0             -11199.353      691360.08    
         1   0             -11199.353      0             -11199.353      691360.08    
Loop time of 0.04212 on 1 procs for 1 steps with 96 atoms

93.2% CPU use with 1 MPI tasks x no OpenMP threads

Minimization stats:
  Stopping criterion = energy tolerance
  Energy initial, next-to-last, final = 
     -11199.3532681763  -11199.3532681763  -11199.3532681766
  Force two-norm initial, final = 7.3535274e-12 3.4609805e-06
  Force max component initial, final = 1.7608866e-12 4.7086665e-07
  Final line search alpha, max atom move = 1 4.7086665e-07
  Iterations, force evaluations = 1 2

MPI task timing breakdown:
Section |  min time  |  avg time  |  max time  |%varavg| %total
---------------------------------------------------------------
Pair    | 0.040013   | 0.040013   | 0.040013   |   0.0 | 95.00
Neigh   | 0          | 0          | 0          |   0.0 |  0.00
Comm    | 3.6e-05    | 3.6e-05    | 3.6e-05    |   0.0 |  0.09
Output  | 0          | 0          | 0          |   0.0 |  0.00
Modify  | 0.0018651  | 0.0018651  | 0.0018651  |   0.0 |  4.43
Other   |            | 0.0002064  |            |       |  0.49

Nlocal:             96 ave          96 max          96 min
Histogram: 1 0 0 0 0 0 0 0 0 0
Nghost:           2731 ave        2731 max        2731 min
Histogram: 1 0 0 0 0 0 0 0 0 0
Neighs:          39102 ave       39102 max       39102 min
Histogram: 1 0 0 0 0 0 0 0 0 0

Total # of neighbors = 39102
Ave neighs/atom = 407.3125
Neighbor list builds = 0
Dangerous builds not checked

clear
# REAX potential for CeO2 system
# .....

units		real

atom_style	charge
read_data	data_1.07.CeO2
Reading data file ...
  orthogonal box = (0 0 0) to (11.700343 11.700343 11.700343)
  1 by 1 by 1 MPI processor grid
  reading atoms ...
  96 atoms
  read_data CPU = 0.000 seconds

pair_style reaxff NULL checkqeq yes
pair_coeff * * ffield.reax O Ce
WARNING: Changed valency_val to valency_boc for X (src/src/REAXFF/reaxff_ffield.cpp:299)

neighbor	2 bin
neigh_modify	every 10 delay 0 check no

fix qeq all qeq/reaxff 1 0.0 10.0 1.0e-6 reaxff

dump            1 all custom 10000 steps-ut.xyz id xu yu zu
dump            2 all custom 10000 steps-ut.CeO2 id xu yu zu q


minimize        1.0e-6 1.0e-8 1000 10000
Switching to 'neigh_modify every 1 delay 0 check yes' setting during minimization
Neighbor list info ...
  update: every = 1 steps, delay = 0 steps, check = yes
  max neighbors/atom: 2000, page size: 100000
  master list distance cutoff = 12
  ghost atom cutoff = 12
  binsize = 6, bins = 2 2 2
  2 neighbor lists, perpetual/occasional/extra = 2 0 0
  (1) pair reaxff, perpetual
      attributes: half, newton off, ghost
      pair build: half/bin/newtoff/ghost
      stencil: full/ghost/bin/3d
      bin: standard
  (2) fix qeq/reaxff, perpetual, copy from (1)
      attributes: half, newton off
      pair build: copy
      stencil: none
      bin: none
Per MPI rank memory allocation (min/avg/max) = 62.29 | 62.29 | 62.29 Mbytes
   Step          Temp          E_pair         E_mol          TotEng         Press     
         0   0             -11619.709      0             -11619.709      620923.33    
         1   0             -11619.709      0             -11619.709      620923.33    
Loop time of 0.0446108 on 1 procs for 1 steps with 96 atoms

90.3% CPU use with 1 MPI tasks x no OpenMP threads

Minimization stats:
  Stopping criterion = linesearch alpha is zero
  Energy initial, next-to-last, final = 
     -11619.7087427084  -11619.7087427084  -11619.7087427079
  Force two-norm initial, final = 9.8172993e-12 6.8270851e-06
  Force max component initial, final = 2.0845994e-12 1.0839772e-06
  Final line search alpha, max atom move = 0.5 5.4198861e-07
  Iterations, force evaluations = 1 2

MPI task timing breakdown:
Section |  min time  |  avg time  |  max time  |%varavg| %total
---------------------------------------------------------------
Pair    | 0.042333   | 0.042333   | 0.042333   |   0.0 | 94.89
Neigh   | 0          | 0          | 0          |   0.0 |  0.00
Comm    | 3.7042e-05 | 3.7042e-05 | 3.7042e-05 |   0.0 |  0.08
Output  | 0          | 0          | 0          |   0.0 |  0.00
Modify  | 0.0020391  | 0.0020391  | 0.0020391  |   0.0 |  4.57
Other   |            | 0.0002015  |            |       |  0.45

Nlocal:             96 ave          96 max          96 min
Histogram: 1 0 0 0 0 0 0 0 0 0
Nghost:           2731 ave        2731 max        2731 min
Histogram: 1 0 0 0 0 0 0 0 0 0
Neighs:          36078 ave       36078 max       36078 min
Histogram: 1 0 0 0 0 0 0 0 0 0

Total # of neighbors = 36078
Ave neighs/atom = 375.8125
Neighbor list builds = 0
Dangerous builds not checked

clear
# REAX potential for CeO2 system
# .....

units		real

atom_style	charge
read_data	data_1.08.CeO2
Reading data file ...
  orthogonal box = (0 0 0) to (11.809692 11.809692 11.809692)
  1 by 1 by 1 MPI processor grid
  reading atoms ...
  96 atoms
  read_data CPU = 0.000 seconds

pair_style reaxff NULL checkqeq yes
pair_coeff * * ffield.reax O Ce
WARNING: Changed valency_val to valency_boc for X (src/src/REAXFF/reaxff_ffield.cpp:299)

neighbor	2 bin
neigh_modify	every 10 delay 0 check no

fix qeq all qeq/reaxff 1 0.0 10.0 1.0e-6 reaxff

dump            1 all custom 10000 steps-ut.xyz id xu yu zu
dump            2 all custom 10000 steps-ut.CeO2 id xu yu zu q


minimize        1.0e-6 1.0e-8 1000 10000
Switching to 'neigh_modify every 1 delay 0 check yes' setting during minimization
Neighbor list info ...
  update: every = 1 steps, delay = 0 steps, check = yes
  max neighbors/atom: 2000, page size: 100000
  master list distance cutoff = 12
  ghost atom cutoff = 12
  binsize = 6, bins = 2 2 2
  2 neighbor lists, perpetual/occasional/extra = 2 0 0
  (1) pair reaxff, perpetual
      attributes: half, newton off, ghost
      pair build: half/bin/newtoff/ghost
      stencil: full/ghost/bin/3d
      bin: standard
  (2) fix qeq/reaxff, perpetual, copy from (1)
      attributes: half, newton off
      pair build: copy
      stencil: none
      bin: none
Per MPI rank memory allocation (min/avg/max) = 61.5 | 61.5 | 61.5 Mbytes
   Step          Temp          E_pair         E_mol          TotEng         Press     
         0   0             -11950.72       0             -11950.72       227249.38    
         1   0             -11950.72       0             -11950.72       227249.38    
Loop time of 0.043869 on 1 procs for 1 steps with 96 atoms

89.2% CPU use with 1 MPI tasks x no OpenMP threads

Minimization stats:
  Stopping criterion = energy tolerance
  Energy initial, next-to-last, final = 
     -11950.7201430634  -11950.7201430634   -11950.720143063
  Force two-norm initial, final = 1.8320147e-11 1.7421521e-05
  Force max component initial, final = 4.1817209e-12 1.919422e-06
  Final line search alpha, max atom move = 1 1.919422e-06
  Iterations, force evaluations = 1 2

MPI task timing breakdown:
Section |  min time  |  avg time  |  max time  |%varavg| %total
---------------------------------------------------------------
Pair    | 0.041663   | 0.041663   | 0.041663   |   0.0 | 94.97
Neigh   | 0          | 0          | 0          |   0.0 |  0.00
Comm    | 3.2706e-05 | 3.2706e-05 | 3.2706e-05 |   0.0 |  0.07
Output  | 0          | 0          | 0          |   0.0 |  0.00
Modify  | 0.0019778  | 0.0019778  | 0.0019778  |   0.0 |  4.51
Other   |            | 0.0001954  |            |       |  0.45

Nlocal:             96 ave          96 max          96 min
Histogram: 1 0 0 0 0 0 0 0 0 0
Nghost:           2731 ave        2731 max        2731 min
Histogram: 1 0 0 0 0 0 0 0 0 0
Neighs:          34581 ave       34581 max       34581 min
Histogram: 1 0 0 0 0 0 0 0 0 0

Total # of neighbors = 34581
Ave neighs/atom = 360.21875
Neighbor list builds = 0
Dangerous builds not checked

clear
# REAX potential for CeO2 system
# .....

units		real

atom_style	charge
read_data	data_1.09.CeO2
Reading data file ...
  orthogonal box = (0 0 0) to (11.919041 11.919041 11.919041)
  1 by 1 by 1 MPI processor grid
  reading atoms ...
  96 atoms
  read_data CPU = 0.000 seconds

pair_style reaxff NULL checkqeq yes
pair_coeff * * ffield.reax O Ce
WARNING: Changed valency_val to valency_boc for X (src/src/REAXFF/reaxff_ffield.cpp:299)

neighbor	2 bin
neigh_modify	every 10 delay 0 check no

fix qeq all qeq/reaxff 1 0.0 10.0 1.0e-6 reaxff

dump            1 all custom 10000 steps-ut.xyz id xu yu zu
dump            2 all custom 10000 steps-ut.CeO2 id xu yu zu q


minimize        1.0e-6 1.0e-8 1000 10000
Switching to 'neigh_modify every 1 delay 0 check yes' setting during minimization
Neighbor list info ...
  update: every = 1 steps, delay = 0 steps, check = yes
  max neighbors/atom: 2000, page size: 100000
  master list distance cutoff = 12
  ghost atom cutoff = 12
  binsize = 6, bins = 2 2 2
  2 neighbor lists, perpetual/occasional/extra = 2 0 0
  (1) pair reaxff, perpetual
      attributes: half, newton off, ghost
      pair build: half/bin/newtoff/ghost
      stencil: full/ghost/bin/3d
      bin: standard
  (2) fix qeq/reaxff, perpetual, copy from (1)
      attributes: half, newton off
      pair build: copy
      stencil: none
      bin: none
Per MPI rank memory allocation (min/avg/max) = 61.5 | 61.5 | 61.5 Mbytes
   Step          Temp          E_pair         E_mol          TotEng         Press     
         0   0             -12054.8        0             -12054.8        132059.67    
         1   0             -12054.8        0             -12054.8        132059.67    
Loop time of 0.0451232 on 1 procs for 1 steps with 96 atoms

91.4% CPU use with 1 MPI tasks x no OpenMP threads

Minimization stats:
  Stopping criterion = energy tolerance
  Energy initial, next-to-last, final = 
     -12054.7996412749  -12054.7996412749   -12054.799641275
  Force two-norm initial, final = 1.3556053e-11 5.142364e-06
  Force max component initial, final = 3.1634695e-12 6.5308158e-07
  Final line search alpha, max atom move = 1 6.5308158e-07
  Iterations, force evaluations = 1 2

MPI task timing breakdown:
Section |  min time  |  avg time  |  max time  |%varavg| %total
---------------------------------------------------------------
Pair    | 0.043027   | 0.043027   | 0.043027   |   0.0 | 95.35
Neigh   | 0          | 0          | 0          |   0.0 |  0.00
Comm    | 3.4083e-05 | 3.4083e-05 | 3.4083e-05 |   0.0 |  0.08
Output  | 0          | 0          | 0          |   0.0 |  0.00
Modify  | 0.0018172  | 0.0018172  | 0.0018172  |   0.0 |  4.03
Other   |            | 0.0002449  |            |       |  0.54

Nlocal:             96 ave          96 max          96 min
Histogram: 1 0 0 0 0 0 0 0 0 0
Nghost:           2731 ave        2731 max        2731 min
Histogram: 1 0 0 0 0 0 0 0 0 0
Neighs:          34581 ave       34581 max       34581 min
Histogram: 1 0 0 0 0 0 0 0 0 0

Total # of neighbors = 34581
Ave neighs/atom = 360.21875
Neighbor list builds = 0
Dangerous builds not checked

clear
# REAX potential for CeO2 system
# .....

units		real

atom_style	charge
read_data	data_1.10.CeO2
Reading data file ...
  orthogonal box = (0 0 0) to (12.02839 12.02839 12.02839)
  1 by 1 by 1 MPI processor grid
  reading atoms ...
  96 atoms
  read_data CPU = 0.000 seconds

pair_style reaxff NULL checkqeq yes
pair_coeff * * ffield.reax O Ce
WARNING: Changed valency_val to valency_boc for X (src/src/REAXFF/reaxff_ffield.cpp:299)

neighbor	2 bin
neigh_modify	every 10 delay 0 check no

fix qeq all qeq/reaxff 1 0.0 10.0 1.0e-6 reaxff

dump            1 all custom 10000 steps-ut.xyz id xu yu zu
dump            2 all custom 10000 steps-ut.CeO2 id xu yu zu q


minimize        1.0e-6 1.0e-8 1000 10000
Switching to 'neigh_modify every 1 delay 0 check yes' setting during minimization
Neighbor list info ...
  update: every = 1 steps, delay = 0 steps, check = yes
  max neighbors/atom: 2000, page size: 100000
  master list distance cutoff = 12
  ghost atom cutoff = 12
  binsize = 6, bins = 3 3 3
  2 neighbor lists, perpetual/occasional/extra = 2 0 0
  (1) pair reaxff, perpetual
      attributes: half, newton off, ghost
      pair build: half/bin/newtoff/ghost
      stencil: full/ghost/bin/3d
      bin: standard
  (2) fix qeq/reaxff, perpetual, copy from (1)
      attributes: half, newton off
      pair build: copy
      stencil: none
      bin: none
Per MPI rank memory allocation (min/avg/max) = 54.33 | 54.33 | 54.33 Mbytes
   Step          Temp          E_pair         E_mol          TotEng         Press     
         0   0             -12131.079      0             -12131.079      91339.004    
         1   0             -12131.079      0             -12131.079      91339.004    
Loop time of 0.0366728 on 1 procs for 1 steps with 96 atoms

92.8% CPU use with 1 MPI tasks x no OpenMP threads

Minimization stats:
  Stopping criterion = linesearch alpha is zero
  Energy initial, next-to-last, final = 
     -12131.0792808905  -12131.0792808905  -12131.0792808904
  Force two-norm initial, final = 2.0243982e-11 1.4294119e-05
  Force max component initial, final = 3.5669245e-12 2.0098579e-06
  Final line search alpha, max atom move = 0.5 1.004929e-06
  Iterations, force evaluations = 1 2

MPI task timing breakdown:
Section |  min time  |  avg time  |  max time  |%varavg| %total
---------------------------------------------------------------
Pair    | 0.034692   | 0.034692   | 0.034692   |   0.0 | 94.60
Neigh   | 0          | 0          | 0          |   0.0 |  0.00
Comm    | 2.7874e-05 | 2.7874e-05 | 2.7874e-05 |   0.0 |  0.08
Output  | 0          | 0          | 0          |   0.0 |  0.00
Modify  | 0.0017117  | 0.0017117  | 0.0017117  |   0.0 |  4.67
Other   |            | 0.0002408  |            |       |  0.66

Nlocal:             96 ave          96 max          96 min
Histogram: 1 0 0 0 0 0 0 0 0 0
Nghost:           2297 ave        2297 max        2297 min
Histogram: 1 0 0 0 0 0 0 0 0 0
Neighs:          34005 ave       34005 max       34005 min
Histogram: 1 0 0 0 0 0 0 0 0 0

Total # of neighbors = 34005
Ave neighs/atom = 354.21875
Neighbor list builds = 0
Dangerous builds not checked

clear
# REAX potential for CeO2 system
# .....

units		real

atom_style	charge
read_data	data_1.11.CeO2
Reading data file ...
  orthogonal box = (0 0 0) to (12.137739 12.137739 12.137739)
  1 by 1 by 1 MPI processor grid
  reading atoms ...
  96 atoms
  read_data CPU = 0.001 seconds

pair_style reaxff NULL checkqeq yes
pair_coeff * * ffield.reax O Ce
WARNING: Changed valency_val to valency_boc for X (src/src/REAXFF/reaxff_ffield.cpp:299)

neighbor	2 bin
neigh_modify	every 10 delay 0 check no

fix qeq all qeq/reaxff 1 0.0 10.0 1.0e-6 reaxff

dump            1 all custom 10000 steps-ut.xyz id xu yu zu
dump            2 all custom 10000 steps-ut.CeO2 id xu yu zu q


minimize        1.0e-6 1.0e-8 1000 10000
Switching to 'neigh_modify every 1 delay 0 check yes' setting during minimization
Neighbor list info ...
  update: every = 1 steps, delay = 0 steps, check = yes
  max neighbors/atom: 2000, page size: 100000
  master list distance cutoff = 12
  ghost atom cutoff = 12
  binsize = 6, bins = 3 3 3
  2 neighbor lists, perpetual/occasional/extra = 2 0 0
  (1) pair reaxff, perpetual
      attributes: half, newton off, ghost
      pair build: half/bin/newtoff/ghost
      stencil: full/ghost/bin/3d
      bin: standard
  (2) fix qeq/reaxff, perpetual, copy from (1)
      attributes: half, newton off
      pair build: copy
      stencil: none
      bin: none
Per MPI rank memory allocation (min/avg/max) = 54.33 | 54.33 | 54.33 Mbytes
   Step          Temp          E_pair         E_mol          TotEng         Press     
         0   0             -12182.535      0             -12182.535      58354.721    
         1   0             -12182.535      0             -12182.535      58354.721    
Loop time of 0.0342227 on 1 procs for 1 steps with 96 atoms

93.0% CPU use with 1 MPI tasks x no OpenMP threads

Minimization stats:
  Stopping criterion = energy tolerance
  Energy initial, next-to-last, final = 
     -12182.5350335061  -12182.5350335061  -12182.5350335068
  Force two-norm initial, final = 1.7950017e-11 5.2932605e-06
  Force max component initial, final = 3.2045477e-12 7.8750373e-07
  Final line search alpha, max atom move = 1 7.8750373e-07
  Iterations, force evaluations = 1 2

MPI task timing breakdown:
Section |  min time  |  avg time  |  max time  |%varavg| %total
---------------------------------------------------------------
Pair    | 0.032275   | 0.032275   | 0.032275   |   0.0 | 94.31
Neigh   | 0          | 0          | 0          |   0.0 |  0.00
Comm    | 2.3918e-05 | 2.3918e-05 | 2.3918e-05 |   0.0 |  0.07
Output  | 0          | 0          | 0          |   0.0 |  0.00
Modify  | 0.0017307  | 0.0017307  | 0.0017307  |   0.0 |  5.06
Other   |            | 0.0001935  |            |       |  0.57

Nlocal:             96 ave          96 max          96 min
Histogram: 1 0 0 0 0 0 0 0 0 0
Nghost:           2297 ave        2297 max        2297 min
Histogram: 1 0 0 0 0 0 0 0 0 0
Neighs:          34005 ave       34005 max       34005 min
Histogram: 1 0 0 0 0 0 0 0 0 0

Total # of neighbors = 34005
Ave neighs/atom = 354.21875
Neighbor list builds = 0
Dangerous builds not checked

clear
# REAX potential for CeO2 system
# .....

units		real

atom_style	charge
read_data	data_1.12.CeO2
Reading data file ...
  orthogonal box = (0 0 0) to (12.247088 12.247088 12.247088)
  1 by 1 by 1 MPI processor grid
  reading atoms ...
  96 atoms
  read_data CPU = 0.000 seconds

pair_style reaxff NULL checkqeq yes
pair_coeff * * ffield.reax O Ce
WARNING: Changed valency_val to valency_boc for X (src/src/REAXFF/reaxff_ffield.cpp:299)

neighbor	2 bin
neigh_modify	every 10 delay 0 check no

fix qeq all qeq/reaxff 1 0.0 10.0 1.0e-6 reaxff

dump            1 all custom 10000 steps-ut.xyz id xu yu zu
dump            2 all custom 10000 steps-ut.CeO2 id xu yu zu q


minimize        1.0e-6 1.0e-8 1000 10000
Switching to 'neigh_modify every 1 delay 0 check yes' setting during minimization
Neighbor list info ...
  update: every = 1 steps, delay = 0 steps, check = yes
  max neighbors/atom: 2000, page size: 100000
  master list distance cutoff = 12
  ghost atom cutoff = 12
  binsize = 6, bins = 3 3 3
  2 neighbor lists, perpetual/occasional/extra = 2 0 0
  (1) pair reaxff, perpetual
      attributes: half, newton off, ghost
      pair build: half/bin/newtoff/ghost
      stencil: full/ghost/bin/3d
      bin: standard
  (2) fix qeq/reaxff, perpetual, copy from (1)
      attributes: half, newton off
      pair build: copy
      stencil: none
      bin: none
Per MPI rank memory allocation (min/avg/max) = 54.33 | 54.33 | 54.33 Mbytes
   Step          Temp          E_pair         E_mol          TotEng         Press     
         0   0             -12215.01       0             -12215.01       35083.003    
         1   0             -12215.01       0             -12215.01       35083.003    
Loop time of 0.0347014 on 1 procs for 1 steps with 96 atoms

92.4% CPU use with 1 MPI tasks x no OpenMP threads

Minimization stats:
  Stopping criterion = energy tolerance
  Energy initial, next-to-last, final = 
     -12215.0095486786  -12215.0095486786  -12215.0095486776
  Force two-norm initial, final = 1.6646433e-11 5.1525623e-06
  Force max component initial, final = 3.126388e-12 8.0390684e-07
  Final line search alpha, max atom move = 1 8.0390684e-07
  Iterations, force evaluations = 1 2

MPI task timing breakdown:
Section |  min time  |  avg time  |  max time  |%varavg| %total
---------------------------------------------------------------
Pair    | 0.032665   | 0.032665   | 0.032665   |   0.0 | 94.13
Neigh   | 0          | 0          | 0          |   0.0 |  0.00
Comm    | 2.4665e-05 | 2.4665e-05 | 2.4665e-05 |   0.0 |  0.07
Output  | 0          | 0          | 0          |   0.0 |  0.00
Modify  | 0.00166    | 0.00166    | 0.00166    |   0.0 |  4.78
Other   |            | 0.0003518  |            |       |  1.01

Nlocal:             96 ave          96 max          96 min
Histogram: 1 0 0 0 0 0 0 0 0 0
Nghost:           2297 ave        2297 max        2297 min
Histogram: 1 0 0 0 0 0 0 0 0 0
Neighs:          34005 ave       34005 max       34005 min
Histogram: 1 0 0 0 0 0 0 0 0 0

Total # of neighbors = 34005
Ave neighs/atom = 354.21875
Neighbor list builds = 0
Dangerous builds not checked

clear
# REAX potential for CeO2 system
# .....

units		real

atom_style	charge
read_data	data_1.13.CeO2
Reading data file ...
  orthogonal box = (0 0 0) to (12.356437 12.356437 12.356437)
  1 by 1 by 1 MPI processor grid
  reading atoms ...
  96 atoms
  read_data CPU = 0.000 seconds

pair_style reaxff NULL checkqeq yes
pair_coeff * * ffield.reax O Ce
WARNING: Changed valency_val to valency_boc for X (src/src/REAXFF/reaxff_ffield.cpp:299)

neighbor	2 bin
neigh_modify	every 10 delay 0 check no

fix qeq all qeq/reaxff 1 0.0 10.0 1.0e-6 reaxff

dump            1 all custom 10000 steps-ut.xyz id xu yu zu
dump            2 all custom 10000 steps-ut.CeO2 id xu yu zu q


minimize        1.0e-6 1.0e-8 1000 10000
Switching to 'neigh_modify every 1 delay 0 check yes' setting during minimization
Neighbor list info ...
  update: every = 1 steps, delay = 0 steps, check = yes
  max neighbors/atom: 2000, page size: 100000
  master list distance cutoff = 12
  ghost atom cutoff = 12
  binsize = 6, bins = 3 3 3
  2 neighbor lists, perpetual/occasional/extra = 2 0 0
  (1) pair reaxff, perpetual
      attributes: half, newton off, ghost
      pair build: half/bin/newtoff/ghost
      stencil: full/ghost/bin/3d
      bin: standard
  (2) fix qeq/reaxff, perpetual, copy from (1)
      attributes: half, newton off
      pair build: copy
      stencil: none
      bin: none
Per MPI rank memory allocation (min/avg/max) = 54.33 | 54.33 | 54.33 Mbytes
   Step          Temp          E_pair         E_mol          TotEng         Press     
         0   0             -12234.396      0             -12234.396      20292.935    
         1   0             -12234.396      0             -12234.396      20292.935    
Loop time of 0.0351671 on 1 procs for 1 steps with 96 atoms

92.6% CPU use with 1 MPI tasks x no OpenMP threads

Minimization stats:
  Stopping criterion = linesearch alpha is zero
  Energy initial, next-to-last, final = 
     -12234.3964469496  -12234.3964469496  -12234.3964469493
  Force two-norm initial, final = 1.5714488e-11 3.2769343e-06
  Force max component initial, final = 2.9629632e-12 4.2072304e-07
  Final line search alpha, max atom move = 0.5 2.1036152e-07
  Iterations, force evaluations = 1 2

MPI task timing breakdown:
Section |  min time  |  avg time  |  max time  |%varavg| %total
---------------------------------------------------------------
Pair    | 0.033327   | 0.033327   | 0.033327   |   0.0 | 94.77
Neigh   | 0          | 0          | 0          |   0.0 |  0.00
Comm    | 2.7501e-05 | 2.7501e-05 | 2.7501e-05 |   0.0 |  0.08
Output  | 0          | 0          | 0          |   0.0 |  0.00
Modify  | 0.0015921  | 0.0015921  | 0.0015921  |   0.0 |  4.53
Other   |            | 0.0002203  |            |       |  0.63

Nlocal:             96 ave          96 max          96 min
Histogram: 1 0 0 0 0 0 0 0 0 0
Nghost:           2297 ave        2297 max        2297 min
Histogram: 1 0 0 0 0 0 0 0 0 0
Neighs:          34005 ave       34005 max       34005 min
Histogram: 1 0 0 0 0 0 0 0 0 0

Total # of neighbors = 34005
Ave neighs/atom = 354.21875
Neighbor list builds = 0
Dangerous builds not checked

clear
# REAX potential for CeO2 system
# .....

units		real

atom_style	charge
read_data	data_1.14.CeO2
Reading data file ...
  orthogonal box = (0 0 0) to (12.465786 12.465786 12.465786)
  1 by 1 by 1 MPI processor grid
  reading atoms ...
  96 atoms
  read_data CPU = 0.000 seconds

pair_style reaxff NULL checkqeq yes
pair_coeff * * ffield.reax O Ce
WARNING: Changed valency_val to valency_boc for X (src/src/REAXFF/reaxff_ffield.cpp:299)

neighbor	2 bin
neigh_modify	every 10 delay 0 check no

fix qeq all qeq/reaxff 1 0.0 10.0 1.0e-6 reaxff

dump            1 all custom 10000 steps-ut.xyz id xu yu zu
dump            2 all custom 10000 steps-ut.CeO2 id xu yu zu q


minimize        1.0e-6 1.0e-8 1000 10000
Switching to 'neigh_modify every 1 delay 0 check yes' setting during minimization
Neighbor list info ...
  update: every = 1 steps, delay = 0 steps, check = yes
  max neighbors/atom: 2000, page size: 100000
  master list distance cutoff = 12
  ghost atom cutoff = 12
  binsize = 6, bins = 3 3 3
  2 neighbor lists, perpetual/occasional/extra = 2 0 0
  (1) pair reaxff, perpetual
      attributes: half, newton off, ghost
      pair build: half/bin/newtoff/ghost
      stencil: full/ghost/bin/3d
      bin: standard
  (2) fix qeq/reaxff, perpetual, copy from (1)
      attributes: half, newton off
      pair build: copy
      stencil: none
      bin: none
Per MPI rank memory allocation (min/avg/max) = 54.33 | 54.33 | 54.33 Mbytes
   Step          Temp          E_pair         E_mol          TotEng         Press     
         0   0             -12245.954      0             -12245.954      12598.686    
         1   0             -12245.954      0             -12245.954      12598.686    
Loop time of 0.0356617 on 1 procs for 1 steps with 96 atoms

90.2% CPU use with 1 MPI tasks x no OpenMP threads

Minimization stats:
  Stopping criterion = linesearch alpha is zero
  Energy initial, next-to-last, final = 
     -12245.9536167661  -12245.9536167661  -12245.9536167663
  Force two-norm initial, final = 1.3513729e-11 2.995419e-06
  Force max component initial, final = 3.0150555e-12 5.2451078e-07
  Final line search alpha, max atom move = 0.5 2.6225539e-07
  Iterations, force evaluations = 1 2

MPI task timing breakdown:
Section |  min time  |  avg time  |  max time  |%varavg| %total
---------------------------------------------------------------
Pair    | 0.033724   | 0.033724   | 0.033724   |   0.0 | 94.57
Neigh   | 0          | 0          | 0          |   0.0 |  0.00
Comm    | 2.4916e-05 | 2.4916e-05 | 2.4916e-05 |   0.0 |  0.07
Output  | 0          | 0          | 0          |   0.0 |  0.00
Modify  | 0.0017265  | 0.0017265  | 0.0017265  |   0.0 |  4.84
Other   |            | 0.0001865  |            |       |  0.52

Nlocal:             96 ave          96 max          96 min
Histogram: 1 0 0 0 0 0 0 0 0 0
Nghost:           2297 ave        2297 max        2297 min
Histogram: 1 0 0 0 0 0 0 0 0 0
Neighs:          34005 ave       34005 max       34005 min
Histogram: 1 0 0 0 0 0 0 0 0 0

Total # of neighbors = 34005
Ave neighs/atom = 354.21875
Neighbor list builds = 0
Dangerous builds not checked

clear
# REAX potential for CeO2 system
# .....

units		real

atom_style	charge
read_data	data_1.15.CeO2
Reading data file ...
  orthogonal box = (0 0 0) to (12.575135 12.575135 12.575135)
  1 by 1 by 1 MPI processor grid
  reading atoms ...
  96 atoms
  read_data CPU = 0.000 seconds

pair_style reaxff NULL checkqeq yes
pair_coeff * * ffield.reax O Ce
WARNING: Changed valency_val to valency_boc for X (src/src/REAXFF/reaxff_ffield.cpp:299)

neighbor	2 bin
neigh_modify	every 10 delay 0 check no

fix qeq all qeq/reaxff 1 0.0 10.0 1.0e-6 reaxff

dump            1 all custom 10000 steps-ut.xyz id xu yu zu
dump            2 all custom 10000 steps-ut.CeO2 id xu yu zu q


minimize        1.0e-6 1.0e-8 1000 10000
Switching to 'neigh_modify every 1 delay 0 check yes' setting during minimization
Neighbor list info ...
  update: every = 1 steps, delay = 0 steps, check = yes
  max neighbors/atom: 2000, page size: 100000
  master list distance cutoff = 12
  ghost atom cutoff = 12
  binsize = 6, bins = 3 3 3
  2 neighbor lists, perpetual/occasional/extra = 2 0 0
  (1) pair reaxff, perpetual
      attributes: half, newton off, ghost
      pair build: half/bin/newtoff/ghost
      stencil: full/ghost/bin/3d
      bin: standard
  (2) fix qeq/reaxff, perpetual, copy from (1)
      attributes: half, newton off
      pair build: copy
      stencil: none
      bin: none
Per MPI rank memory allocation (min/avg/max) = 53.51 | 53.51 | 53.51 Mbytes
   Step          Temp          E_pair         E_mol          TotEng         Press     
         0   0             -12254.165      0             -12254.165      10511.618    
         1   0             -12254.165      0             -12254.165      10511.618    
Loop time of 0.0269278 on 1 procs for 1 steps with 96 atoms

86.5% CPU use with 1 MPI tasks x no OpenMP threads

Minimization stats:
  Stopping criterion = energy tolerance
  Energy initial, next-to-last, final = 
     -12254.1645088037  -12254.1645088037  -12254.1645088045
  Force two-norm initial, final = 7.8472202e-12 6.7944986e-08
  Force max component initial, final = 1.7397917e-12 1.0729806e-08
  Final line search alpha, max atom move = 1 1.0729806e-08
  Iterations, force evaluations = 1 1

MPI task timing breakdown:
Section |  min time  |  avg time  |  max time  |%varavg| %total
---------------------------------------------------------------
Pair    | 0.025423   | 0.025423   | 0.025423   |   0.0 | 94.41
Neigh   | 0          | 0          | 0          |   0.0 |  0.00
Comm    | 1.4792e-05 | 1.4792e-05 | 1.4792e-05 |   0.0 |  0.05
Output  | 0          | 0          | 0          |   0.0 |  0.00
Modify  | 0.0012865  | 0.0012865  | 0.0012865  |   0.0 |  4.78
Other   |            | 0.0002034  |            |       |  0.76

Nlocal:             96 ave          96 max          96 min
Histogram: 1 0 0 0 0 0 0 0 0 0
Nghost:           2297 ave        2297 max        2297 min
Histogram: 1 0 0 0 0 0 0 0 0 0
Neighs:          29568 ave       29568 max       29568 min
Histogram: 1 0 0 0 0 0 0 0 0 0

Total # of neighbors = 29568
Ave neighs/atom = 308
Neighbor list builds = 0
Dangerous builds not checked

clear
# REAX potential for CeO2 system
# .....

units		real

atom_style	charge
read_data	data_1.16.CeO2
Reading data file ...
  orthogonal box = (0 0 0) to (12.684484 12.684484 12.684484)
  1 by 1 by 1 MPI processor grid
  reading atoms ...
  96 atoms
  read_data CPU = 0.000 seconds

pair_style reaxff NULL checkqeq yes
pair_coeff * * ffield.reax O Ce
WARNING: Changed valency_val to valency_boc for X (src/src/REAXFF/reaxff_ffield.cpp:299)

neighbor	2 bin
neigh_modify	every 10 delay 0 check no

fix qeq all qeq/reaxff 1 0.0 10.0 1.0e-6 reaxff

dump            1 all custom 10000 steps-ut.xyz id xu yu zu
dump            2 all custom 10000 steps-ut.CeO2 id xu yu zu q


minimize        1.0e-6 1.0e-8 1000 10000
Switching to 'neigh_modify every 1 delay 0 check yes' setting during minimization
Neighbor list info ...
  update: every = 1 steps, delay = 0 steps, check = yes
  max neighbors/atom: 2000, page size: 100000
  master list distance cutoff = 12
  ghost atom cutoff = 12
  binsize = 6, bins = 3 3 3
  2 neighbor lists, perpetual/occasional/extra = 2 0 0
  (1) pair reaxff, perpetual
      attributes: half, newton off, ghost
      pair build: half/bin/newtoff/ghost
      stencil: full/ghost/bin/3d
      bin: standard
  (2) fix qeq/reaxff, perpetual, copy from (1)
      attributes: half, newton off
      pair build: copy
      stencil: none
      bin: none
Per MPI rank memory allocation (min/avg/max) = 53.51 | 53.51 | 53.51 Mbytes
   Step          Temp          E_pair         E_mol          TotEng         Press     
         0   0             -12262.541      0             -12262.541      12291.798    
         1   0             -12262.541      0             -12262.541      12291.798    
Loop time of 0.0362618 on 1 procs for 1 steps with 96 atoms

91.1% CPU use with 1 MPI tasks x no OpenMP threads

Minimization stats:
  Stopping criterion = energy tolerance
  Energy initial, next-to-last, final = 
     -12262.5407186631  -12262.5407186631  -12262.5407186632
  Force two-norm initial, final = 1.0632042e-11 4.132387e-07
  Force max component initial, final = 2.6405544e-12 8.6348521e-08
  Final line search alpha, max atom move = 1 8.6348521e-08
  Iterations, force evaluations = 1 2

MPI task timing breakdown:
Section |  min time  |  avg time  |  max time  |%varavg| %total
---------------------------------------------------------------
Pair    | 0.034556   | 0.034556   | 0.034556   |   0.0 | 95.30
Neigh   | 0          | 0          | 0          |   0.0 |  0.00
Comm    | 2.3875e-05 | 2.3875e-05 | 2.3875e-05 |   0.0 |  0.07
Output  | 0          | 0          | 0          |   0.0 |  0.00
Modify  | 0.0014918  | 0.0014918  | 0.0014918  |   0.0 |  4.11
Other   |            | 0.0001899  |            |       |  0.52

Nlocal:             96 ave          96 max          96 min
Histogram: 1 0 0 0 0 0 0 0 0 0
Nghost:           2297 ave        2297 max        2297 min
Histogram: 1 0 0 0 0 0 0 0 0 0
Neighs:          29568 ave       29568 max       29568 min
Histogram: 1 0 0 0 0 0 0 0 0 0

Total # of neighbors = 29568
Ave neighs/atom = 308
Neighbor list builds = 0
Dangerous builds not checked

clear
# REAX potential for CeO2 system
# .....

units		real

atom_style	charge
read_data	data_1.17.CeO2
Reading data file ...
  orthogonal box = (0 0 0) to (12.793833 12.793833 12.793833)
  1 by 1 by 1 MPI processor grid
  reading atoms ...
  96 atoms
  read_data CPU = 0.014 seconds

pair_style reaxff NULL checkqeq yes
pair_coeff * * ffield.reax O Ce
WARNING: Changed valency_val to valency_boc for X (src/src/REAXFF/reaxff_ffield.cpp:299)

neighbor	2 bin
neigh_modify	every 10 delay 0 check no

fix qeq all qeq/reaxff 1 0.0 10.0 1.0e-6 reaxff

dump            1 all custom 10000 steps-ut.xyz id xu yu zu
dump            2 all custom 10000 steps-ut.CeO2 id xu yu zu q


minimize        1.0e-6 1.0e-8 1000 10000
Switching to 'neigh_modify every 1 delay 0 check yes' setting during minimization
Neighbor list info ...
  update: every = 1 steps, delay = 0 steps, check = yes
  max neighbors/atom: 2000, page size: 100000
  master list distance cutoff = 12
  ghost atom cutoff = 12
  binsize = 6, bins = 3 3 3
  2 neighbor lists, perpetual/occasional/extra = 2 0 0
  (1) pair reaxff, perpetual
      attributes: half, newton off, ghost
      pair build: half/bin/newtoff/ghost
      stencil: full/ghost/bin/3d
      bin: standard
  (2) fix qeq/reaxff, perpetual, copy from (1)
      attributes: half, newton off
      pair build: copy
      stencil: none
      bin: none
Per MPI rank memory allocation (min/avg/max) = 53.51 | 53.51 | 53.51 Mbytes
   Step          Temp          E_pair         E_mol          TotEng         Press     
         0   0             -12273.263      0             -12273.263      15735.488    
         1   0             -12273.263      0             -12273.263      15735.488    
Loop time of 0.0356764 on 1 procs for 1 steps with 96 atoms

90.8% CPU use with 1 MPI tasks x no OpenMP threads

Minimization stats:
  Stopping criterion = energy tolerance
  Energy initial, next-to-last, final = 
     -12273.2630971399  -12273.2630971399  -12273.2630971395
  Force two-norm initial, final = 1.3479128e-11 8.3912635e-07
  Force max component initial, final = 2.8400615e-12 1.1490696e-07
  Final line search alpha, max atom move = 1 1.1490696e-07
  Iterations, force evaluations = 1 2

MPI task timing breakdown:
Section |  min time  |  avg time  |  max time  |%varavg| %total
---------------------------------------------------------------
Pair    | 0.033689   | 0.033689   | 0.033689   |   0.0 | 94.43
Neigh   | 0          | 0          | 0          |   0.0 |  0.00
Comm    | 2.2916e-05 | 2.2916e-05 | 2.2916e-05 |   0.0 |  0.06
Output  | 0          | 0          | 0          |   0.0 |  0.00
Modify  | 0.0017569  | 0.0017569  | 0.0017569  |   0.0 |  4.92
Other   |            | 0.0002077  |            |       |  0.58

Nlocal:             96 ave          96 max          96 min
Histogram: 1 0 0 0 0 0 0 0 0 0
Nghost:           2297 ave        2297 max        2297 min
Histogram: 1 0 0 0 0 0 0 0 0 0
Neighs:          29568 ave       29568 max       29568 min
Histogram: 1 0 0 0 0 0 0 0 0 0

Total # of neighbors = 29568
Ave neighs/atom = 308
Neighbor list builds = 0
Dangerous builds not checked

clear
# REAX potential for CeO2 system
# .....

units		real

atom_style	charge
read_data	data_1.18.CeO2
Reading data file ...
  orthogonal box = (0 0 0) to (12.903182 12.903182 12.903182)
  1 by 1 by 1 MPI processor grid
  reading atoms ...
  96 atoms
  read_data CPU = 0.000 seconds

pair_style reaxff NULL checkqeq yes
pair_coeff * * ffield.reax O Ce
WARNING: Changed valency_val to valency_boc for X (src/src/REAXFF/reaxff_ffield.cpp:299)

neighbor	2 bin
neigh_modify	every 10 delay 0 check no

fix qeq all qeq/reaxff 1 0.0 10.0 1.0e-6 reaxff

dump            1 all custom 10000 steps-ut.xyz id xu yu zu
dump            2 all custom 10000 steps-ut.CeO2 id xu yu zu q


minimize        1.0e-6 1.0e-8 1000 10000
Switching to 'neigh_modify every 1 delay 0 check yes' setting during minimization
Neighbor list info ...
  update: every = 1 steps, delay = 0 steps, check = yes
  max neighbors/atom: 2000, page size: 100000
  master list distance cutoff = 12
  ghost atom cutoff = 12
  binsize = 6, bins = 3 3 3
  2 neighbor lists, perpetual/occasional/extra = 2 0 0
  (1) pair reaxff, perpetual
      attributes: half, newton off, ghost
      pair build: half/bin/newtoff/ghost
      stencil: full/ghost/bin/3d
      bin: standard
  (2) fix qeq/reaxff, perpetual, copy from (1)
      attributes: half, newton off
      pair build: copy
      stencil: none
      bin: none
Per MPI rank memory allocation (min/avg/max) = 53.45 | 53.45 | 53.45 Mbytes
   Step          Temp          E_pair         E_mol          TotEng         Press     
         0   0             -12286.642      0             -12286.642      18008.458    
         1   0             -12286.642      0             -12286.642      18008.458    
Loop time of 0.0342903 on 1 procs for 1 steps with 96 atoms

90.8% CPU use with 1 MPI tasks x no OpenMP threads

Minimization stats:
  Stopping criterion = energy tolerance
  Energy initial, next-to-last, final = 
     -12286.6416424644  -12286.6416424644  -12286.6416424653
  Force two-norm initial, final = 1.1888381e-11 7.0760236e-07
  Force max component initial, final = 3.0072134e-12 1.1706948e-07
  Final line search alpha, max atom move = 1 1.1706948e-07
  Iterations, force evaluations = 1 2

MPI task timing breakdown:
Section |  min time  |  avg time  |  max time  |%varavg| %total
---------------------------------------------------------------
Pair    | 0.03268    | 0.03268    | 0.03268    |   0.0 | 95.30
Neigh   | 0          | 0          | 0          |   0.0 |  0.00
Comm    | 2.3792e-05 | 2.3792e-05 | 2.3792e-05 |   0.0 |  0.07
Output  | 0          | 0          | 0          |   0.0 |  0.00
Modify  | 0.0013841  | 0.0013841  | 0.0013841  |   0.0 |  4.04
Other   |            | 0.0002021  |            |       |  0.59

Nlocal:             96 ave          96 max          96 min
Histogram: 1 0 0 0 0 0 0 0 0 0
Nghost:           2297 ave        2297 max        2297 min
Histogram: 1 0 0 0 0 0 0 0 0 0
Neighs:          25176 ave       25176 max       25176 min
Histogram: 1 0 0 0 0 0 0 0 0 0

Total # of neighbors = 25176
Ave neighs/atom = 262.25
Neighbor list builds = 0
Dangerous builds not checked

clear
# REAX potential for CeO2 system
# .....

units		real

atom_style	charge
read_data	data_1.19.CeO2
Reading data file ...
  orthogonal box = (0 0 0) to (13.012531 13.012531 13.012531)
  1 by 1 by 1 MPI processor grid
  reading atoms ...
  96 atoms
  read_data CPU = 0.000 seconds

pair_style reaxff NULL checkqeq yes
pair_coeff * * ffield.reax O Ce
WARNING: Changed valency_val to valency_boc for X (src/src/REAXFF/reaxff_ffield.cpp:299)

neighbor	2 bin
neigh_modify	every 10 delay 0 check no

fix qeq all qeq/reaxff 1 0.0 10.0 1.0e-6 reaxff

dump            1 all custom 10000 steps-ut.xyz id xu yu zu
dump            2 all custom 10000 steps-ut.CeO2 id xu yu zu q


minimize        1.0e-6 1.0e-8 1000 10000
Switching to 'neigh_modify every 1 delay 0 check yes' setting during minimization
Neighbor list info ...
  update: every = 1 steps, delay = 0 steps, check = yes
  max neighbors/atom: 2000, page size: 100000
[...]
  Energy initial, next-to-last, final = 
     -12300.5315014048  -12300.5315014048   -12300.531501405
  Force two-norm initial, final = 1.8718464e-11 7.3975039e-08
  Force max component initial, final = 3.83997e-12 1.3492878e-08
  Final line search alpha, max atom move = 1 1.3492878e-08
  Iterations, force evaluations = 1 1

MPI task timing breakdown:
Section |  min time  |  avg time  |  max time  |%varavg| %total
---------------------------------------------------------------
Pair    | 0.021453   | 0.021453   | 0.021453   |   0.0 | 94.65
Neigh   | 0          | 0          | 0          |   0.0 |  0.00
Comm    | 1.5543e-05 | 1.5543e-05 | 1.5543e-05 |   0.0 |  0.07
Output  | 0          | 0          | 0          |   0.0 |  0.00
Modify  | 0.00099488 | 0.00099488 | 0.00099488 |   0.0 |  4.39
Other   |            | 0.0002026  |            |       |  0.89

Nlocal:             96 ave          96 max          96 min
Histogram: 1 0 0 0 0 0 0 0 0 0
Nghost:           2297 ave        2297 max        2297 min
Histogram: 1 0 0 0 0 0 0 0 0 0
Neighs:          25176 ave       25176 max       25176 min
Histogram: 1 0 0 0 0 0 0 0 0 0

Total # of neighbors = 25176
Ave neighs/atom = 262.25
Neighbor list builds = 0
Dangerous builds not checked

clear
# REAX potential for CeO2 system
# .....

units		real

atom_style	charge
read_data	data_1.20.CeO2
Reading data file ...
  orthogonal box = (0 0 0) to (13.12188 13.12188 13.12188)
  1 by 1 by 1 MPI processor grid
  reading atoms ...
  96 atoms
  read_data CPU = 0.000 seconds

pair_style reaxff NULL checkqeq yes
pair_coeff * * ffield.reax O Ce
WARNING: Changed valency_val to valency_boc for X (src/src/REAXFF/reaxff_ffield.cpp:299)

neighbor	2 bin
neigh_modify	every 10 delay 0 check no

fix qeq all qeq/reaxff 1 0.0 10.0 1.0e-6 reaxff

dump            1 all custom 10000 steps-ut.xyz id xu yu zu
dump            2 all custom 10000 steps-ut.CeO2 id xu yu zu q


minimize        1.0e-6 1.0e-8 1000 10000
Switching to 'neigh_modify every 1 delay 0 check yes' setting during minimization
Neighbor list info ...
  update: every = 1 steps, delay = 0 steps, check = yes
  max neighbors/atom: 2000, page size: 100000
  master list distance cutoff = 12
  ghost atom cutoff = 12
  binsize = 6, bins = 3 3 3
  2 neighbor lists, perpetual/occasional/extra = 2 0 0
  (1) pair reaxff, perpetual
      attributes: half, newton off, ghost
      pair build: half/bin/newtoff/ghost
      stencil: full/ghost/bin/3d
      bin: standard
  (2) fix qeq/reaxff, perpetual, copy from (1)
      attributes: half, newton off
      pair build: copy
      stencil: none
      bin: none
Per MPI rank memory allocation (min/avg/max) = 53.45 | 53.45 | 53.45 Mbytes
   Step          Temp          E_pair         E_mol          TotEng         Press     
         0   0             -12310.297      0             -12310.297      7071.3813    
         1   0             -12310.297      0             -12310.297      7071.3813    
Loop time of 0.0369349 on 1 procs for 1 steps with 96 atoms

89.4% CPU use with 1 MPI tasks x no OpenMP threads

Minimization stats:
  Stopping criterion = linesearch alpha is zero
  Energy initial, next-to-last, final = 
     -12310.2974638533  -12310.2974638533  -12310.2974638534
  Force two-norm initial, final = 1.7459039e-11 1.0822993e-06
  Force max component initial, final = 3.8620218e-12 1.8480142e-07
  Final line search alpha, max atom move = 0.5 9.2400711e-08
  Iterations, force evaluations = 1 2

MPI task timing breakdown:
Section |  min time  |  avg time  |  max time  |%varavg| %total
---------------------------------------------------------------
Pair    | 0.035275   | 0.035275   | 0.035275   |   0.0 | 95.51
Neigh   | 0          | 0          | 0          |   0.0 |  0.00
Comm    | 2.6374e-05 | 2.6374e-05 | 2.6374e-05 |   0.0 |  0.07
Output  | 0          | 0          | 0          |   0.0 |  0.00
Modify  | 0.0013915  | 0.0013915  | 0.0013915  |   0.0 |  3.77
Other   |            | 0.000242   |            |       |  0.66

Nlocal:             96 ave          96 max          96 min
Histogram: 1 0 0 0 0 0 0 0 0 0
Nghost:           2297 ave        2297 max        2297 min
Histogram: 1 0 0 0 0 0 0 0 0 0
Neighs:          25176 ave       25176 max       25176 min
Histogram: 1 0 0 0 0 0 0 0 0 0

Total # of neighbors = 25176
Ave neighs/atom = 262.25
Neighbor list builds = 0
Dangerous builds not checked

clear
# REAX potential for CeO2 system
# .....

units		real

atom_style	charge
read_data	data_1.21.CeO2
Reading data file ...
  orthogonal box = (0 0 0) to (13.231229 13.231229 13.231229)
  1 by 1 by 1 MPI processor grid
  reading atoms ...
  96 atoms
  read_data CPU = 0.000 seconds

pair_style reaxff NULL checkqeq yes
pair_coeff * * ffield.reax O Ce
WARNING: Changed valency_val to valency_boc for X (src/src/REAXFF/reaxff_ffield.cpp:299)

neighbor	2 bin
neigh_modify	every 10 delay 0 check no

fix qeq all qeq/reaxff 1 0.0 10.0 1.0e-6 reaxff

dump            1 all custom 10000 steps-ut.xyz id xu yu zu
dump            2 all custom 10000 steps-ut.CeO2 id xu yu zu q


minimize        1.0e-6 1.0e-8 1000 10000
Switching to 'neigh_modify every 1 delay 0 check yes' setting during minimization
Neighbor list info ...
  update: every = 1 steps, delay = 0 steps, check = yes
  max neighbors/atom: 2000, page size: 100000
  master list distance cutoff = 12
  ghost atom cutoff = 12
  binsize = 6, bins = 3 3 3
  2 neighbor lists, perpetual/occasional/extra = 2 0 0
  (1) pair reaxff, perpetual
      attributes: half, newton off, ghost
      pair build: half/bin/newtoff/ghost
      stencil: full/ghost/bin/3d
      bin: standard
  (2) fix qeq/reaxff, perpetual, copy from (1)
      attributes: half, newton off
      pair build: copy
      stencil: none
      bin: none
Per MPI rank memory allocation (min/avg/max) = 53.45 | 53.45 | 53.45 Mbytes
   Step          Temp          E_pair         E_mol          TotEng         Press     
         0   0             -12309.766      0             -12309.766     -9222.2143    
         1   0             -12309.766      0             -12309.766     -9222.2143    
Loop time of 0.0370983 on 1 procs for 1 steps with 96 atoms

90.2% CPU use with 1 MPI tasks x no OpenMP threads

Minimization stats:
  Stopping criterion = linesearch alpha is zero
  Energy initial, next-to-last, final = 
     -12309.7656549033  -12309.7656549033  -12309.7656549032
  Force two-norm initial, final = 2.4032218e-11 1.4557019e-06
  Force max component initial, final = 4.915568e-12 2.6372672e-07
  Final line search alpha, max atom move = 0.5 1.3186336e-07
  Iterations, force evaluations = 1 2

MPI task timing breakdown:
Section |  min time  |  avg time  |  max time  |%varavg| %total
---------------------------------------------------------------
Pair    | 0.035338   | 0.035338   | 0.035338   |   0.0 | 95.26
Neigh   | 0          | 0          | 0          |   0.0 |  0.00
Comm    | 2.4166e-05 | 2.4166e-05 | 2.4166e-05 |   0.0 |  0.07
Output  | 0          | 0          | 0          |   0.0 |  0.00
Modify  | 0.001495   | 0.001495   | 0.001495   |   0.0 |  4.03
Other   |            | 0.0002408  |            |       |  0.65

Nlocal:             96 ave          96 max          96 min
Histogram: 1 0 0 0 0 0 0 0 0 0
Nghost:           2297 ave        2297 max        2297 min
Histogram: 1 0 0 0 0 0 0 0 0 0
Neighs:          25176 ave       25176 max       25176 min
Histogram: 1 0 0 0 0 0 0 0 0 0

Total # of neighbors = 25176
Ave neighs/atom = 262.25
Neighbor list builds = 0
Dangerous builds not checked

clear
# REAX potential for CeO2 system
# .....

units		real

atom_style	charge
read_data	data_1.22.CeO2
Reading data file ...
  orthogonal box = (0 0 0) to (13.340578 13.340578 13.340578)
  1 by 1 by 1 MPI processor grid
  reading atoms ...
  96 atoms
  read_data CPU = 0.000 seconds

pair_style reaxff NULL checkqeq yes
pair_coeff * * ffield.reax O Ce
WARNING: Changed valency_val to valency_boc for X (src/src/REAXFF/reaxff_ffield.cpp:299)

neighbor	2 bin
neigh_modify	every 10 delay 0 check no

fix qeq all qeq/reaxff 1 0.0 10.0 1.0e-6 reaxff

dump            1 all custom 10000 steps-ut.xyz id xu yu zu
dump            2 all custom 10000 steps-ut.CeO2 id xu yu zu q


minimize        1.0e-6 1.0e-8 1000 10000
Switching to 'neigh_modify every 1 delay 0 check yes' setting during minimization
Neighbor list info ...
  update: every = 1 steps, delay = 0 steps, check = yes
  max neighbors/atom: 2000, page size: 100000
  master list distance cutoff = 12
  ghost atom cutoff = 12
  binsize = 6, bins = 3 3 3
  2 neighbor lists, perpetual/occasional/extra = 2 0 0
  (1) pair reaxff, perpetual
      attributes: half, newton off, ghost
      pair build: half/bin/newtoff/ghost
      stencil: full/ghost/bin/3d
      bin: standard
  (2) fix qeq/reaxff, perpetual, copy from (1)
      attributes: half, newton off
      pair build: copy
      stencil: none
      bin: none
Per MPI rank memory allocation (min/avg/max) = 53.43 | 53.43 | 53.43 Mbytes
   Step          Temp          E_pair         E_mol          TotEng         Press     
         0   0             -12292.557      0             -12292.557     -32186.157    
         1   0             -12292.557      0             -12292.557     -32186.157    
Loop time of 0.033717 on 1 procs for 1 steps with 96 atoms

92.3% CPU use with 1 MPI tasks x no OpenMP threads

Minimization stats:
  Stopping criterion = energy tolerance
  Energy initial, next-to-last, final = 
     -12292.5572175901  -12292.5572175901  -12292.5572175899
  Force two-norm initial, final = 2.1411552e-11 8.3544269e-07
  Force max component initial, final = 5.1277747e-12 1.854953e-07
  Final line search alpha, max atom move = 1 1.854953e-07
  Iterations, force evaluations = 1 2

MPI task timing breakdown:
Section |  min time  |  avg time  |  max time  |%varavg| %total
---------------------------------------------------------------
Pair    | 0.032238   | 0.032238   | 0.032238   |   0.0 | 95.61
Neigh   | 0          | 0          | 0          |   0.0 |  0.00
Comm    | 2.3333e-05 | 2.3333e-05 | 2.3333e-05 |   0.0 |  0.07
Output  | 0          | 0          | 0          |   0.0 |  0.00
Modify  | 0.0012508  | 0.0012508  | 0.0012508  |   0.0 |  3.71
Other   |            | 0.000205   |            |       |  0.61

Nlocal:             96 ave          96 max          96 min
Histogram: 1 0 0 0 0 0 0 0 0 0
Nghost:           2297 ave        2297 max        2297 min
Histogram: 1 0 0 0 0 0 0 0 0 0
Neighs:          23736 ave       23736 max       23736 min
Histogram: 1 0 0 0 0 0 0 0 0 0

Total # of neighbors = 23736
Ave neighs/atom = 247.25
Neighbor list builds = 0
Dangerous builds not checked

clear
# REAX potential for CeO2 system
# .....

units		real

atom_style	charge
read_data	data_1.23.CeO2
Reading data file ...
  orthogonal box = (0 0 0) to (13.449927 13.449927 13.449927)
  1 by 1 by 1 MPI processor grid
  reading atoms ...
  96 atoms
  read_data CPU = 0.000 seconds

pair_style reaxff NULL checkqeq yes
pair_coeff * * ffield.reax O Ce
WARNING: Changed valency_val to valency_boc for X (src/src/REAXFF/reaxff_ffield.cpp:299)

neighbor	2 bin
neigh_modify	every 10 delay 0 check no

fix qeq all qeq/reaxff 1 0.0 10.0 1.0e-6 reaxff

dump            1 all custom 10000 steps-ut.xyz id xu yu zu
dump            2 all custom 10000 steps-ut.CeO2 id xu yu zu q


minimize        1.0e-6 1.0e-8 1000 10000
Switching to 'neigh_modify every 1 delay 0 check yes' setting during minimization
Neighbor list info ...
  update: every = 1 steps, delay = 0 steps, check = yes
  max neighbors/atom: 2000, page size: 100000
  master list distance cutoff = 12
  ghost atom cutoff = 12
  binsize = 6, bins = 3 3 3
  2 neighbor lists, perpetual/occasional/extra = 2 0 0
  (1) pair reaxff, perpetual
      attributes: half, newton off, ghost
      pair build: half/bin/newtoff/ghost
      stencil: full/ghost/bin/3d
      bin: standard
  (2) fix qeq/reaxff, perpetual, copy from (1)
      attributes: half, newton off
      pair build: copy
      stencil: none
      bin: none
Per MPI rank memory allocation (min/avg/max) = 53.39 | 53.39 | 53.39 Mbytes
   Step          Temp          E_pair         E_mol          TotEng         Press     
         0   0             -12253.141      0             -12253.141     -60075.13     
         1   0             -12253.141      0             -12253.141     -60075.13     
Loop time of 0.0352735 on 1 procs for 1 steps with 96 atoms

92.1% CPU use with 1 MPI tasks x no OpenMP threads

Minimization stats:
  Stopping criterion = linesearch alpha is zero
  Energy initial, next-to-last, final = 
     -12253.1413668207  -12253.1413668207  -12253.1413668207
  Force two-norm initial, final = 1.8815473e-11 5.5653631e-07
  Force max component initial, final = 5.7334813e-12 1.0297045e-07
  Final line search alpha, max atom move = 0.5 5.1485227e-08
  Iterations, force evaluations = 1 2

MPI task timing breakdown:
Section |  min time  |  avg time  |  max time  |%varavg| %total
---------------------------------------------------------------
Pair    | 0.033824   | 0.033824   | 0.033824   |   0.0 | 95.89
Neigh   | 0          | 0          | 0          |   0.0 |  0.00
Comm    | 2.4417e-05 | 2.4417e-05 | 2.4417e-05 |   0.0 |  0.07
Output  | 0          | 0          | 0          |   0.0 |  0.00
Modify  | 0.0012286  | 0.0012286  | 0.0012286  |   0.0 |  3.48
Other   |            | 0.0001969  |            |       |  0.56

Nlocal:             96 ave          96 max          96 min
Histogram: 1 0 0 0 0 0 0 0 0 0
Nghost:           2297 ave        2297 max        2297 min
Histogram: 1 0 0 0 0 0 0 0 0 0
Neighs:          20832 ave       20832 max       20832 min
Histogram: 1 0 0 0 0 0 0 0 0 0

Total # of neighbors = 20832
Ave neighs/atom = 217
Neighbor list builds = 0
Dangerous builds not checked

clear
# REAX potential for CeO2 system
# .....

units		real

atom_style	charge
read_data	data_1.24.CeO2
Reading data file ...
  orthogonal box = (0 0 0) to (13.559276 13.559276 13.559276)
  1 by 1 by 1 MPI processor grid
  reading atoms ...
  96 atoms
  read_data CPU = 0.000 seconds

pair_style reaxff NULL checkqeq yes
pair_coeff * * ffield.reax O Ce
WARNING: Changed valency_val to valency_boc for X (src/src/REAXFF/reaxff_ffield.cpp:299)

neighbor	2 bin
neigh_modify	every 10 delay 0 check no

fix qeq all qeq/reaxff 1 0.0 10.0 1.0e-6 reaxff

dump            1 all custom 10000 steps-ut.xyz id xu yu zu
dump            2 all custom 10000 steps-ut.CeO2 id xu yu zu q


minimize        1.0e-6 1.0e-8 1000 10000
Switching to 'neigh_modify every 1 delay 0 check yes' setting during minimization
Neighbor list info ...
  update: every = 1 steps, delay = 0 steps, check = yes
  max neighbors/atom: 2000, page size: 100000
  master list distance cutoff = 12
  ghost atom cutoff = 12
  binsize = 6, bins = 3 3 3
  2 neighbor lists, perpetual/occasional/extra = 2 0 0
  (1) pair reaxff, perpetual
      attributes: half, newton off, ghost
      pair build: half/bin/newtoff/ghost
      stencil: full/ghost/bin/3d
      bin: standard
  (2) fix qeq/reaxff, perpetual, copy from (1)
      attributes: half, newton off
      pair build: copy
      stencil: none
      bin: none
Per MPI rank memory allocation (min/avg/max) = 53.39 | 53.39 | 53.39 Mbytes
   Step          Temp          E_pair         E_mol          TotEng         Press     
         0   0             -12188.361      0             -12188.361     -87463.197    
         1   0             -12188.361      0             -12188.361     -87463.197    
Loop time of 0.0226646 on 1 procs for 1 steps with 96 atoms

88.8% CPU use with 1 MPI tasks x no OpenMP threads

Minimization stats:
  Stopping criterion = energy tolerance
  Energy initial, next-to-last, final = 
     -12188.3606751159  -12188.3606751159  -12188.3606751163
  Force two-norm initial, final = 2.2774472e-11 6.6043154e-08
  Force max component initial, final = 5.3976823e-12 1.2579047e-08
  Final line search alpha, max atom move = 1 1.2579047e-08
  Iterations, force evaluations = 1 1

MPI task timing breakdown:
Section |  min time  |  avg time  |  max time  |%varavg| %total
---------------------------------------------------------------
Pair    | 0.021741   | 0.021741   | 0.021741   |   0.0 | 95.92
Neigh   | 0          | 0          | 0          |   0.0 |  0.00
Comm    | 1.5542e-05 | 1.5542e-05 | 1.5542e-05 |   0.0 |  0.07
Output  | 0          | 0          | 0          |   0.0 |  0.00
Modify  | 0.00072479 | 0.00072479 | 0.00072479 |   0.0 |  3.20
Other   |            | 0.0001836  |            |       |  0.81

Nlocal:             96 ave          96 max          96 min
Histogram: 1 0 0 0 0 0 0 0 0 0
Nghost:           2297 ave        2297 max        2297 min
Histogram: 1 0 0 0 0 0 0 0 0 0
Neighs:          20832 ave       20832 max       20832 min
Histogram: 1 0 0 0 0 0 0 0 0 0

Total # of neighbors = 20832
Ave neighs/atom = 217
Neighbor list builds = 0
Dangerous builds not checked

clear
# REAX potential for CeO2 system
# .....

units		real

atom_style	charge
read_data	data_1.25.CeO2
Reading data file ...
  orthogonal box = (0 0 0) to (13.668625 13.668625 13.668625)
  1 by 1 by 1 MPI processor grid
  reading atoms ...
  96 atoms
  read_data CPU = 0.000 seconds

pair_style reaxff NULL checkqeq yes
pair_coeff * * ffield.reax O Ce
WARNING: Changed valency_val to valency_boc for X (src/src/REAXFF/reaxff_ffield.cpp:299)

neighbor	2 bin
neigh_modify	every 10 delay 0 check no

fix qeq all qeq/reaxff 1 0.0 10.0 1.0e-6 reaxff

dump            1 all custom 10000 steps-ut.xyz id xu yu zu
dump            2 all custom 10000 steps-ut.CeO2 id xu yu zu q


minimize        1.0e-6 1.0e-8 1000 10000
Switching to 'neigh_modify every 1 delay 0 check yes' setting during minimization
Neighbor list info ...
  update: every = 1 steps, delay = 0 steps, check = yes
  max neighbors/atom: 2000, page size: 100000
  master list distance cutoff = 12
  ghost atom cutoff = 12
  binsize = 6, bins = 3 3 3
  2 neighbor lists, perpetual/occasional/extra = 2 0 0
  (1) pair reaxff, perpetual
      attributes: half, newton off, ghost
      pair build: half/bin/newtoff/ghost
      stencil: full/ghost/bin/3d
      bin: standard
  (2) fix qeq/reaxff, perpetual, copy from (1)
      attributes: half, newton off
      pair build: copy
      stencil: none
      bin: none
Per MPI rank memory allocation (min/avg/max) = 53.39 | 53.39 | 53.39 Mbytes
   Step          Temp          E_pair         E_mol          TotEng         Press     
         0   0             -12101.105      0             -12101.105     -107381.03    
         1   0             -12101.105      0             -12101.105     -107381.03    
Loop time of 0.0208028 on 1 procs for 1 steps with 96 atoms

90.1% CPU use with 1 MPI tasks x no OpenMP threads

Minimization stats:
  Stopping criterion = energy tolerance
  Energy initial, next-to-last, final = 
     -12101.1053964388  -12101.1053964388  -12101.1053964392
  Force two-norm initial, final = 2.9457398e-11 1.0775475e-07
  Force max component initial, final = 5.049748e-12 1.9716627e-08
  Final line search alpha, max atom move = 1 1.9716627e-08
  Iterations, force evaluations = 1 1

MPI task timing breakdown:
Section |  min time  |  avg time  |  max time  |%varavg| %total
---------------------------------------------------------------
Pair    | 0.019836   | 0.019836   | 0.019836   |   0.0 | 95.35
Neigh   | 0          | 0          | 0          |   0.0 |  0.00
Comm    | 1.5084e-05 | 1.5084e-05 | 1.5084e-05 |   0.0 |  0.07
Output  | 0          | 0          | 0          |   0.0 |  0.00
Modify  | 0.0007565  | 0.0007565  | 0.0007565  |   0.0 |  3.64
Other   |            | 0.000195   |            |       |  0.94

Nlocal:             96 ave          96 max          96 min
Histogram: 1 0 0 0 0 0 0 0 0 0
Nghost:           2297 ave        2297 max        2297 min
Histogram: 1 0 0 0 0 0 0 0 0 0
Neighs:          20832 ave       20832 max       20832 min
Histogram: 1 0 0 0 0 0 0 0 0 0

Total # of neighbors = 20832
Ave neighs/atom = 217
Neighbor list builds = 0
Dangerous builds not checked
