ITEM: TIMESTEP
0
ITEM: NUMBER OF ATOMS
96
ITEM: BOX BOUNDS pp pp pp
0.0000000000000000e+00 1.3668625000000004e+01
0.0000000000000000e+00 1.3668625000000004e+01
0.0000000000000000e+00 1.3668625000000004e+01
ITEM: ATOMS id xu yu zu
1 0 0 0
2 0 3.41716 3.41716
3 3.41716 0 3.41716
4 3.41716 3.41716 0
5 1.70858 1.70858 5.12573
6 1.70858 5.12573 5.12573
7 1.70858 5.12573 1.70858
8 1.70858 1.70858 1.70858
9 5.12573 1.70858 1.70858
10 5.12573 5.12573 1.70858
11 5.12573 5.12573 5.12573
12 5.12573 1.70858 5.12573
49 6.83431 0 0
50 6.83431 3.41716 3.41716
51 10.2515 0 3.41716
52 10.2515 3.41716 0
53 8.54289 1.70858 5.12573
54 8.54289 5.12573 5.12573
55 8.54289 5.12573 1.70858
56 8.54289 1.70858 1.70858
57 11.96 1.70858 1.70858
58 11.96 5.12573 1.70858
59 11.96 5.12573 5.12573
60 11.96 1.70858 5.12573
25 0 6.83431 0
26 0 10.2515 3.41716
27 3.41716 6.83431 3.41716
28 3.41716 10.2515 0
29 1.70858 8.54289 5.12573
30 1.70858 11.96 5.12573
31 1.70858 11.96 1.70858
32 1.70858 8.54289 1.70858
33 5.12573 8.54289 1.70858
34 5.12573 11.96 1.70858
35 5.12573 11.96 5.12573
36 5.12573 8.54289 5.12573
73 6.83431 6.83431 0
74 6.83431 10.2515 3.41716
75 10.2515 6.83431 3.41716
76 10.2515 10.2515 0
77 8.54289 8.54289 5.12573
78 8.54289 11.96 5.12573
79 8.54289 11.96 1.70858
80 8.54289 8.54289 1.70858
81 11.96 8.54289 1.70858
82 11.96 11.96 1.70858
83 11.96 11.96 5.12573
84 11.96 8.54289 5.12573
13 0 0 6.83431
14 0 3.41716 10.2515
15 3.41716 13.6686 10.2515
16 3.41716 3.41716 6.83431
17 1.70858 1.70858 11.96
18 1.70858 5.12573 11.96
19 1.70858 5.12573 8.54289
20 1.70858 1.70858 8.54289
21 5.12573 1.70858 8.54289
22 5.12573 5.12573 8.54289
23 5.12573 5.12573 11.96
24 5.12573 1.70858 11.96
61 6.83431 0 6.83431
62 6.83431 3.41716 10.2515
63 10.2515 13.6686 10.2515
64 10.2515 3.41716 6.83431
65 8.54289 1.70858 11.96
66 8.54289 5.12573 11.96
67 8.54289 5.12573 8.54289
68 8.54289 1.70858 8.54289
69 11.96 1.70858 8.54289
70 11.96 5.12573 8.54289
71 11.96 5.12573 11.96
72 11.96 1.70858 11.96
37 0 6.83431 6.83431
38 0 10.2515 10.2515
39 3.41716 6.83431 10.2515
40 3.41716 10.2515 6.83431
41 1.70858 8.54289 11.96
42 1.70858 11.96 11.96
43 1.70858 11.96 8.54289
44 1.70858 8.54289 8.54289
45 5.12573 8.54289 8.54289
46 5.12573 11.96 8.54289
47 5.12573 11.96 11.96
48 5.12573 8.54289 11.96
85 6.83431 6.83431 6.83431
86 6.83431 10.2515 10.2515
87 10.2515 6.83431 10.2515
88 10.2515 10.2515 6.83431
89 8.54289 8.54289 11.96
90 8.54289 11.96 11.96
91 8.54289 11.96 8.54289
92 8.54289 8.54289 8.54289
93 11.96 8.54289 8.54289
94 11.96 11.96 8.54289
95 11.96 11.96 11.96
96 11.96 8.54289 11.96
ITEM: TIMESTEP
1
ITEM: NUMBER OF ATOMS
96
ITEM: BOX BOUNDS pp pp pp
0.0000000000000000e+00 1.3668625000000004e+01
0.0000000000000000e+00 1.3668625000000004e+01
0.0000000000000000e+00 1.3668625000000004e+01
ITEM: ATOMS id xu yu zu
1 1.98952e-13 1.52767e-13 1.47438e-13
2 2.20268e-13 3.41716 3.41716
3 3.41716 2.27374e-13 3.41716
4 3.41716 3.41716 2.34479e-13
5 1.70858 1.70858 5.12573
6 1.70858 5.12573 5.12573
7 1.70858 5.12573 1.70858
8 1.70858 1.70858 1.70858
9 5.12573 1.70858 1.70858
10 5.12573 5.12573 1.70858
11 5.12573 5.12573 5.12573
12 5.12573 1.70858 5.12573
49 6.83431 1.59761e-13 1.94622e-13
50 6.83431 3.41716 3.41716
51 10.2515 1.65201e-13 3.41716
52 10.2515 3.41716 1.62342e-13
53 8.54289 1.70858 5.12573
54 8.54289 5.12573 5.12573
55 8.54289 5.12573 1.70858
56 8.54289 1.70858 1.70858
57 11.96 1.70858 1.70858
58 11.96 5.12573 1.70858
59 11.96 5.12573 5.12573
60 11.96 1.70858 5.12573
25 1.98952e-13 6.83431 1.21125e-13
26 1.84741e-13 10.2515 3.41716
27 3.41716 6.83431 3.41716
28 3.41716 10.2515 1.69642e-13
29 1.70858 8.54289 5.12573
30 1.70858 11.96 5.12573
31 1.70858 11.96 1.70858
32 1.70858 8.54289 1.70858
33 5.12573 8.54289 1.70858
34 5.12573 11.96 1.70858
35 5.12573 11.96 5.12573
36 5.12573 8.54289 5.12573
73 6.83431 6.83431 1.09565e-13
74 6.83431 10.2515 3.41716
75 10.2515 6.83431 3.41716
76 10.2515 10.2515 7.57172e-14
77 8.54289 8.54289 5.12573
78 8.54289 11.96 5.12573
79 8.54289 11.96 1.70858
80 8.54289 8.54289 1.70858
81 11.96 8.54289 1.70858
82 11.96 11.96 1.70858
83 11.96 11.96 5.12573
84 11.96 8.54289 5.12573
13 2.13163e-13 1.81188e-13 6.83431
14 1.84741e-13 3.41716 10.2515
15 3.41716 13.6686 10.2515
16 3.41716 3.41716 6.83431
17 1.70858 1.70858 11.96
18 1.70858 5.12573 11.96
19 1.70858 5.12573 8.54289
20 1.70858 1.70858 8.54289
21 5.12573 1.70858 8.54289
22 5.12573 5.12573 8.54289
23 5.12573 5.12573 11.96
24 5.12573 1.70858 11.96
61 6.83431 1.43829e-13 6.83431
62 6.83431 3.41716 10.2515
63 10.2515 13.6686 10.2515
64 10.2515 3.41716 6.83431
65 8.54289 1.70858 11.96
66 8.54289 5.12573 11.96
67 8.54289 5.12573 8.54289
68 8.54289 1.70858 8.54289
69 11.96 1.70858 8.54289
70 11.96 5.12573 8.54289
71 11.96 5.12573 11.96
72 11.96 1.70858 11.96
37 1.63425e-13 6.83431 6.83431
38 9.23706e-14 10.2515 10.2515
39 3.41716 6.83431 10.2515
40 3.41716 10.2515 6.83431
41 1.70858 8.54289 11.96
42 1.70858 11.96 11.96
43 1.70858 11.96 8.54289
44 1.70858 8.54289 8.54289
45 5.12573 8.54289 8.54289
46 5.12573 11.96 8.54289
47 5.12573 11.96 11.96
48 5.12573 8.54289 11.96
85 6.83431 6.83431 6.83431
86 6.83431 10.2515 10.2515
87 10.2515 6.83431 10.2515
88 10.2515 10.2515 6.83431
89 8.54289 8.54289 11.96
90 8.54289 11.96 11.96
91 8.54289 11.96 8.54289
92 8.54289 8.54289 8.54289
93 11.96 8.54289 8.54289
94 11.96 11.96 8.54289
95 11.96 11.96 11.96
96 11.96 8.54289 11.96
