ITEM: TIMESTEP
0
ITEM: NUMBER OF ATOMS
96
ITEM: BOX BOUNDS pp pp pp
0.0000000000000000e+00 1.3668625000000004e+01
0.0000000000000000e+00 1.3668625000000004e+01
0.0000000000000000e+00 1.3668625000000004e+01
ITEM: ATOMS id xu yu zu q
1 0 0 0 -0.913509
2 0 3.41716 3.41716 -0.913509
3 3.41716 0 3.41716 -0.913509
4 3.41716 3.41716 0 -0.913509
5 1.70858 1.70858 5.12573 0.456755
6 1.70858 5.12573 5.12573 0.456755
7 1.70858 5.12573 1.70858 0.456755
8 1.70858 1.70858 1.70858 0.456755
9 5.12573 1.70858 1.70858 0.456755
10 5.12573 5.12573 1.70858 0.456755
11 5.12573 5.12573 5.12573 0.456755
12 5.12573 1.70858 5.12573 0.456755
49 6.83431 0 0 -0.913509
50 6.83431 3.41716 3.41716 -0.913509
51 10.2515 0 3.41716 -0.913509
52 10.2515 3.41716 0 -0.913509
53 8.54289 1.70858 5.12573 0.456755
54 8.54289 5.12573 5.12573 0.456755
55 8.54289 5.12573 1.70858 0.456755
56 8.54289 1.70858 1.70858 0.456755
57 11.96 1.70858 1.70858 0.456755
58 11.96 5.12573 1.70858 0.456755
59 11.96 5.12573 5.12573 0.456755
60 11.96 1.70858 5.12573 0.456755
25 0 6.83431 0 -0.913509
26 0 10.2515 3.41716 -0.913509
27 3.41716 6.83431 3.41716 -0.913509
28 3.41716 10.2515 0 -0.913509
29 1.70858 8.54289 5.12573 0.456755
30 1.70858 11.96 5.12573 0.456755
31 1.70858 11.96 1.70858 0.456755
32 1.70858 8.54289 1.70858 0.456755
33 5.12573 8.54289 1.70858 0.456755
34 5.12573 11.96 1.70858 0.456755
35 5.12573 11.96 5.12573 0.456755
36 5.12573 8.54289 5.12573 0.456755
73 6.83431 6.83431 0 -0.913509
74 6.83431 10.2515 3.41716 -0.913509
75 10.2515 6.83431 3.41716 -0.913509
76 10.2515 10.2515 0 -0.913509
77 8.54289 8.54289 5.12573 0.456755
78 8.54289 11.96 5.12573 0.456755
79 8.54289 11.96 1.70858 0.456755
80 8.54289 8.54289 1.70858 0.456755
81 11.96 8.54289 1.70858 0.456755
82 11.96 11.96 1.70858 0.456755
83 11.96 11.96 5.12573 0.456755
84 11.96 8.54289 5.12573 0.456755
13 0 0 6.83431 -0.913509
14 0 3.41716 10.2515 -0.913509
15 3.41716 13.6686 10.2515 -0.913509
16 3.41716 3.41716 6.83431 -0.913509
17 1.70858 1.70858 11.96 0.456755
18 1.70858 5.12573 11.96 0.456755
19 1.70858 5.12573 8.54289 0.456755
20 1.70858 1.70858 8.54289 0.456755
21 5.12573 1.70858 8.54289 0.456755
22 5.12573 5.12573 8.54289 0.456755
23 5.12573 5.12573 11.96 0.456755
24 5.12573 1.70858 11.96 0.456755
61 6.83431 0 6.83431 -0.913509
62 6.83431 3.41716 10.2515 -0.913509
63 10.2515 13.6686 10.2515 -0.913509
64 10.2515 3.41716 6.83431 -0.913509
65 8.54289 1.70858 11.96 0.456755
66 8.54289 5.12573 11.96 0.456755
67 8.54289 5.12573 8.54289 0.456755
68 8.54289 1.70858 8.54289 0.456755
69 11.96 1.70858 8.54289 0.456755
70 11.96 5.12573 8.54289 0.456755
71 11.96 5.12573 11.96 0.456755
72 11.96 1.70858 11.96 0.456755
37 0 6.83431 6.83431 -0.913509
38 0 10.2515 10.2515 -0.913509
39 3.41716 6.83431 10.2515 -0.913509
40 3.41716 10.2515 6.83431 -0.913509
41 1.70858 8.54289 11.96 0.456755
42 1.70858 11.96 11.96 0.456755
43 1.70858 11.96 8.54289 0.456755
44 1.70858 8.54289 8.54289 0.456755
45 5.12573 8.54289 8.54289 0.456755
46 5.12573 11.96 8.54289 0.456755
47 5.12573 11.96 11.96 0.456755
48 5.12573 8.54289 11.96 0.456755
85 6.83431 6.83431 6.83431 -0.913509
86 6.83431 10.2515 10.2515 -0.913509
87 10.2515 6.83431 10.2515 -0.913509
88 10.2515 10.2515 6.83431 -0.913509
89 8.54289 8.54289 11.96 0.456755
90 8.54289 11.96 11.96 0.456755
91 8.54289 11.96 8.54289 0.456755
92 8.54289 8.54289 8.54289 0.456755
93 11.96 8.54289 8.54289 0.456755
94 11.96 11.96 8.54289 0.456755
95 11.96 11.96 11.96 0.456755
96 11.96 8.54289 11.96 0.456755
ITEM: TIMESTEP
1
ITEM: NUMBER OF ATOMS
96
ITEM: BOX BOUNDS pp pp pp
0.0000000000000000e+00 1.3668625000000004e+01
0.0000000000000000e+00 1.3668625000000004e+01
0.0000000000000000e+00 1.3668625000000004e+01
ITEM: ATOMS id xu yu zu q
1 1.98952e-13 1.52767e-13 1.47438e-13 -0.913509
2 2.20268e-13 3.41716 3.41716 -0.913509
3 3.41716 2.27374e-13 3.41716 -0.913509
4 3.41716 3.41716 2.34479e-13 -0.913509
5 1.70858 1.70858 5.12573 0.456755
6 1.70858 5.12573 5.12573 0.456755
7 1.70858 5.12573 1.70858 0.456755
8 1.70858 1.70858 1.70858 0.456755
9 5.12573 1.70858 1.70858 0.456755
10 5.12573 5.12573 1.70858 0.456755
11 5.12573 5.12573 5.12573 0.456755
12 5.12573 1.70858 5.12573 0.456755
49 6.83431 1.59761e-13 1.94622e-13 -0.913509
50 6.83431 3.41716 3.41716 -0.913509
51 10.2515 1.65201e-13 3.41716 -0.913509
52 10.2515 3.41716 1.62342e-13 -0.913509
53 8.54289 1.70858 5.12573 0.456755
54 8.54289 5.12573 5.12573 0.456755
55 8.54289 5.12573 1.70858 0.456755
56 8.54289 1.70858 1.70858 0.456755
57 11.96 1.70858 1.70858 0.456755
58 11.96 5.12573 1.70858 0.456755
59 11.96 5.12573 5.12573 0.456755
60 11.96 1.70858 5.12573 0.456755
25 1.98952e-13 6.83431 1.21125e-13 -0.913509
26 1.84741e-13 10.2515 3.41716 -0.913509
27 3.41716 6.83431 3.41716 -0.913509
28 3.41716 10.2515 1.69642e-13 -0.913509
29 1.70858 8.54289 5.12573 0.456755
30 1.70858 11.96 5.12573 0.456755
31 1.70858 11.96 1.70858 0.456755
32 1.70858 8.54289 1.70858 0.456755
33 5.12573 8.54289 1.70858 0.456755
34 5.12573 11.96 1.70858 0.456755
35 5.12573 11.96 5.12573 0.456755
36 5.12573 8.54289 5.12573 0.456755
73 6.83431 6.83431 1.09565e-13 -0.913509
74 6.83431 10.2515 3.41716 -0.913509
75 10.2515 6.83431 3.41716 -0.913509
76 10.2515 10.2515 7.57172e-14 -0.913509
77 8.54289 8.54289 5.12573 0.456755
78 8.54289 11.96 5.12573 0.456755
79 8.54289 11.96 1.70858 0.456755
80 8.54289 8.54289 1.70858 0.456755
81 11.96 8.54289 1.70858 0.456755
82 11.96 11.96 1.70858 0.456755
83 11.96 11.96 5.12573 0.456755
84 11.96 8.54289 5.12573 0.456755
13 2.13163e-13 1.81188e-13 6.83431 -0.913509
14 1.84741e-13 3.41716 10.2515 -0.913509
15 3.41716 13.6686 10.2515 -0.913509
16 3.41716 3.41716 6.83431 -0.913509
17 1.70858 1.70858 11.96 0.456755
18 1.70858 5.12573 11.96 0.456755
19 1.70858 5.12573 8.54289 0.456755
20 1.70858 1.70858 8.54289 0.456755
21 5.12573 1.70858 8.54289 0.456755
22 5.12573 5.12573 8.54289 0.456755
23 5.12573 5.12573 11.96 0.456755
24 5.12573 1.70858 11.96 0.456755
61 6.83431 1.43829e-13 6.83431 -0.913509
62 6.83431 3.41716 10.2515 -0.913509
63 10.2515 13.6686 10.2515 -0.913509
64 10.2515 3.41716 6.83431 -0.913509
65 8.54289 1.70858 11.96 0.456755
66 8.54289 5.12573 11.96 0.456755
67 8.54289 5.12573 8.54289 0.456755
68 8.54289 1.70858 8.54289 0.456755
69 11.96 1.70858 8.54289 0.456755
70 11.96 5.12573 8.54289 0.456755
71 11.96 5.12573 11.96 0.456755
72 11.96 1.70858 11.96 0.456755
37 1.63425e-13 6.83431 6.83431 -0.913509
38 9.23706e-14 10.2515 10.2515 -0.913509
39 3.41716 6.83431 10.2515 -0.913509
40 3.41716 10.2515 6.83431 -0.913509
41 1.70858 8.54289 11.96 0.456755
42 1.70858 11.96 11.96 0.456755
43 1.70858 11.96 8.54289 0.456755
44 1.70858 8.54289 8.54289 0.456755
45 5.12573 8.54289 8.54289 0.456755
46 5.12573 11.96 8.54289 0.456755
47 5.12573 11.96 11.96 0.456755
48 5.12573 8.54289 11.96 0.456755
85 6.83431 6.83431 6.83431 -0.913509
86 6.83431 10.2515 10.2515 -0.913509
87 10.2515 6.83431 10.2515 -0.913509
88 10.2515 10.2515 6.83431 -0.913509
89 8.54289 8.54289 11.96 0.456755
90 8.54289 11.96 11.96 0.456755
91 8.54289 11.96 8.54289 0.456755
92 8.54289 8.54289 8.54289 0.456755
93 11.96 8.54289 8.54289 0.456755
94 11.96 11.96 8.54289 0.456755
95 11.96 11.96 11.96 0.456755
96 11.96 8.54289 11.96 0.456755
