 # "Ce80 O160"
  
         240  atoms
           2  atom types
 
      0.000000000000       7.732140000000  xlo xhi
      0.000000000000       5.467450000000  ylo yhi
      0.000000000000      95.388400000000  zlo zhi
 
Masses
 
            1   140.11600000            # Ce
            2   15.99900000             # O
 
Atoms # atomic
 
         1    1        7.732140000000       0.000000000000       9.999565972000
         2    1        5.799105000000       2.733725000000      11.933088840000
         3    1        1.933035000000       2.733725000000      11.933088840000
         4    1        3.866070000000       0.000000000000       9.999565972000
         5    2        7.732140000000       1.366862500000      11.933088840000
         6    2        1.933035000000       1.366862500000       9.999565972000
         7    2        1.933035000000       4.100587500000       9.999565972000
         8    2        7.732140000000       4.100587500000      11.933088840000
         9    2        5.799105000000       4.100587500000       9.999565972000
        10    2        3.866070000000       4.100587500000      11.933088840000
        11    2        3.866070000000       1.366862500000      11.933088840000
        12    2        5.799105000000       1.366862500000       9.999565972000
        13    1        3.866070000000       0.000000000000      13.865657824000
        14    1        1.933035000000       2.733725000000      15.799180692000
        15    1        5.799105000000       2.733725000000      15.799180692000
        16    1        7.732140000000       0.000000000000      13.865657824000
        17    2        3.866070000000       1.366862500000      15.799180692000
        18    2        5.799105000000       1.366862500000      13.865657824000
        19    2        5.799105000000       4.100587500000      13.865657824000
        20    2        3.866070000000       4.100587500000      15.799180692000
        21    2        1.933035000000       4.100587500000      13.865657824000
        22    2        7.732140000000       4.100587500000      15.799180692000
        23    2        7.732140000000       1.366862500000      15.799180692000
        24    2        1.933035000000       1.366862500000      13.865657824000
        25    1        7.732140000000       0.000000000000      17.731749676000
        26    1        5.799105000000       2.733725000000      19.665272544000
        27    1        1.933035000000       2.733725000000      19.665272544000
        28    1        3.866070000000       0.000000000000      17.731749676000
        29    2        7.732140000000       1.366862500000      19.665272544000
        30    2        1.933035000000       1.366862500000      17.731749676000
        31    2        1.933035000000       4.100587500000      17.731749676000
        32    2        7.732140000000       4.100587500000      19.665272544000
        33    2        5.799105000000       4.100587500000      17.731749676000
        34    2        3.866070000000       4.100587500000      19.665272544000
        35    2        3.866070000000       1.366862500000      19.665272544000
        36    2        5.799105000000       1.366862500000      17.731749676000
        37    1        3.866070000000       0.000000000000      21.597841528000
        38    1        1.933035000000       2.733725000000      23.531364396000
        39    1        5.799105000000       2.733725000000      23.531364396000
        40    1        7.732140000000       0.000000000000      21.597841528000
        41    2        3.866070000000       1.366862500000      23.531364396000
        42    2        5.799105000000       1.366862500000      21.597841528000
        43    2        5.799105000000       4.100587500000      21.597841528000
        44    2        3.866070000000       4.100587500000      23.531364396000
        45    2        1.933035000000       4.100587500000      21.597841528000
        46    2        7.732140000000       4.100587500000      23.531364396000
        47    2        7.732140000000       1.366862500000      23.531364396000
        48    2        1.933035000000       1.366862500000      21.597841528000
        49    1        7.732140000000       0.000000000000      25.463933380000
        50    1        5.799105000000       2.733725000000      27.397456248000
        51    1        1.933035000000       2.733725000000      27.397456248000
        52    1        3.866070000000       0.000000000000      25.463933380000
        53    2        7.732140000000       1.366862500000      27.397456248000
        54    2        1.933035000000       1.366862500000      25.463933380000
        55    2        1.933035000000       4.100587500000      25.463933380000
        56    2        7.732140000000       4.100587500000      27.397456248000
        57    2        5.799105000000       4.100587500000      25.463933380000
        58    2        3.866070000000       4.100587500000      27.397456248000
        59    2        3.866070000000       1.366862500000      27.397456248000
        60    2        5.799105000000       1.366862500000      25.463933380000
        61    1        3.866070000000       0.000000000000      29.330025232000
        62    1        1.933035000000       2.733725000000      31.263548100000
        63    1        5.799105000000       2.733725000000      31.263548100000
        64    1        7.732140000000       0.000000000000      29.330025232000
        65    2        3.866070000000       1.366862500000      31.263548100000
        66    2        5.799105000000       1.366862500000      29.330025232000
        67    2        5.799105000000       4.100587500000      29.330025232000
        68    2        3.866070000000       4.100587500000      31.263548100000
        69    2        1.933035000000       4.100587500000      29.330025232000
        70    2        7.732140000000       4.100587500000      31.263548100000
        71    2        7.732140000000       1.366862500000      31.263548100000
        72    2        1.933035000000       1.366862500000      29.330025232000
        73    1        7.732140000000       0.000000000000      33.196117084000
        74    1        5.799105000000       2.733725000000      35.129639952000
        75    1        1.933035000000       2.733725000000      35.129639952000
        76    1        3.866070000000       0.000000000000      33.196117084000
        77    2        7.732140000000       1.366862500000      35.129639952000
        78    2        1.933035000000       1.366862500000      33.196117084000
        79    2        1.933035000000       4.100587500000      33.196117084000
        80    2        7.732140000000       4.100587500000      35.129639952000
        81    2        5.799105000000       4.100587500000      33.196117084000
        82    2        3.866070000000       4.100587500000      35.129639952000
        83    2        3.866070000000       1.366862500000      35.129639952000
        84    2        5.799105000000       1.366862500000      33.196117084000
        85    1        3.866070000000       5.467450000000      37.062208936000
        86    1        1.933035000000       2.733725000000      38.995731804000
        87    1        5.799105000000       2.733725000000      38.995731804000
        88    1        7.732140000000       5.467450000000      37.062208936000
        89    2        3.866070000000       1.366862500000      38.995731804000
        90    2        5.799105000000       1.366862500000      37.062208936000
        91    2        5.799105000000       4.100587500000      37.062208936000
        92    2        3.866070000000       4.100587500000      38.995731804000
        93    2        1.933035000000       4.100587500000      37.062208936000
        94    2        7.732140000000       4.100587500000      38.995731804000
        95    2        7.732140000000       1.366862500000      38.995731804000
        96    2        1.933035000000       1.366862500000      37.062208936000
        97    1        7.732140000000       0.000000000000      40.928300788000
        98    1        5.799105000000       2.733725000000      42.861823656000
        99    1        1.933035000000       2.733725000000      42.861823656000
       100    1        3.866070000000       0.000000000000      40.928300788000
       101    2        7.732140000000       1.366862500000      42.861823656000
       102    2        1.933035000000       1.366862500000      40.928300788000
       103    2        1.933035000000       4.100587500000      40.928300788000
       104    2        7.732140000000       4.100587500000      42.861823656000
       105    2        5.799105000000       4.100587500000      40.928300788000
       106    2        3.866070000000       4.100587500000      42.861823656000
       107    2        3.866070000000       1.366862500000      42.861823656000
       108    2        5.799105000000       1.366862500000      40.928300788000
       109    1        3.866070000000       0.000000000000      44.794392640000
       110    1        1.933035000000       2.733725000000      46.727915508000
       111    1        5.799105000000       2.733725000000      46.727915508000
       112    1        7.732140000000       0.000000000000      44.794392640000
       113    2        3.866070000000       1.366862500000      46.727915508000
       114    2        5.799105000000       1.366862500000      44.794392640000
       115    2        5.799105000000       4.100587500000      44.794392640000
       116    2        3.866070000000       4.100587500000      46.727915508000
       117    2        1.933035000000       4.100587500000      44.794392640000
       118    2        7.732140000000       4.100587500000      46.727915508000
       119    2        7.732140000000       1.366862500000      46.727915508000
       120    2        1.933035000000       1.366862500000      44.794392640000
       121    1        7.732140000000       0.000000000000      48.660484492000
       122    1        5.799105000000       2.733725000000      50.594007360000
       123    1        1.933035000000       2.733725000000      50.594007360000
       124    1        3.866070000000       0.000000000000      48.660484492000
       125    2        7.732140000000       1.366862500000      50.594007360000
       126    2        1.933035000000       1.366862500000      48.660484492000
       127    2        1.933035000000       4.100587500000      48.660484492000
       128    2        7.732140000000       4.100587500000      50.594007360000
       129    2        5.799105000000       4.100587500000      48.660484492000
       130    2        3.866070000000       4.100587500000      50.594007360000
       131    2        3.866070000000       1.366862500000      50.594007360000
       132    2        5.799105000000       1.366862500000      48.660484492000
       133    1        3.866070000000       0.000000000000      52.526576344000
       134    1        1.933035000000       2.733725000000      54.460099212000
       135    1        5.799105000000       2.733725000000      54.460099212000
       136    1        7.732140000000       0.000000000000      52.526576344000
       137    2        3.866070000000       1.366862500000      54.460099212000
       138    2        5.799105000000       1.366862500000      52.526576344000
       139    2        5.799105000000       4.100587500000      52.526576344000
       140    2        3.866070000000       4.100587500000      54.460099212000
       141    2        1.933035000000       4.100587500000      52.526576344000
       142    2        7.732140000000       4.100587500000      54.460099212000
       143    2        7.732140000000       1.366862500000      54.460099212000
       144    2        1.933035000000       1.366862500000      52.526576344000
       145    1        7.732140000000       0.000000000000      56.392668196000
       146    1        5.799105000000       2.733725000000      58.326191064000
       147    1        1.933035000000       2.733725000000      58.326191064000
       148    1        3.866070000000       0.000000000000      56.392668196000
       149    2        7.732140000000       1.366862500000      58.326191064000
       150    2        1.933035000000       1.366862500000      56.392668196000
       151    2        1.933035000000       4.100587500000      56.392668196000
       152    2        7.732140000000       4.100587500000      58.326191064000
       153    2        5.799105000000       4.100587500000      56.392668196000
       154    2        3.866070000000       4.100587500000      58.326191064000
       155    2        3.866070000000       1.366862500000      58.326191064000
       156    2        5.799105000000       1.366862500000      56.392668196000
       157    1        3.866070000000       0.000000000000      60.258760048000
       158    1        1.933035000000       2.733725000000      62.192282916000
       159    1        5.799105000000       2.733725000000      62.192282916000
       160    1        7.732140000000       0.000000000000      60.258760048000
       161    2        3.866070000000       1.366862500000      62.192282916000
       162    2        5.799105000000       1.366862500000      60.258760048000
       163    2        5.799105000000       4.100587500000      60.258760048000
       164    2        3.866070000000       4.100587500000      62.192282916000
       165    2        1.933035000000       4.100587500000      60.258760048000
       166    2        7.732140000000       4.100587500000      62.192282916000
       167    2        7.732140000000       1.366862500000      62.192282916000
       168    2        1.933035000000       1.366862500000      60.258760048000
       169    1        7.732140000000       0.000000000000      64.124851900000
       170    1        5.799105000000       2.733725000000      66.058374768000
       171    1        1.933035000000       2.733725000000      66.058374768000
       172    1        3.866070000000       0.000000000000      64.124851900000
       173    2        7.732140000000       1.366862500000      66.058374768000
       174    2        1.933035000000       1.366862500000      64.124851900000
       175    2        1.933035000000       4.100587500000      64.124851900000
       176    2        7.732140000000       4.100587500000      66.058374768000
       177    2        5.799105000000       4.100587500000      64.124851900000
       178    2        3.866070000000       4.100587500000      66.058374768000
       179    2        3.866070000000       1.366862500000      66.058374768000
       180    2        5.799105000000       1.366862500000      64.124851900000
       181    1        3.866070000000       5.467450000000      67.990943752000
       182    1        1.933035000000       2.733725000000      69.924466620000
       183    1        5.799105000000       2.733725000000      69.924466620000
       184    1        7.732140000000       5.467450000000      67.990943752000
       185    2        3.866070000000       1.366862500000      69.924466620000
       186    2        5.799105000000       1.366862500000      67.990943752000
       187    2        5.799105000000       4.100587500000      67.990943752000
       188    2        3.866070000000       4.100587500000      69.924466620000
       189    2        1.933035000000       4.100587500000      67.990943752000
       190    2        7.732140000000       4.100587500000      69.924466620000
       191    2        7.732140000000       1.366862500000      69.924466620000
       192    2        1.933035000000       1.366862500000      67.990943752000
       193    1        7.732140000000       0.000000000000      71.857035604000
       194    1        5.799105000000       2.733725000000      73.790558472000
       195    1        1.933035000000       2.733725000000      73.790558472000
       196    1        3.866070000000       0.000000000000      71.857035604000
       197    2        7.732140000000       1.366862500000      73.790558472000
       198    2        1.933035000000       1.366862500000      71.857035604000
       199    2        1.933035000000       4.100587500000      71.857035604000
       200    2        7.732140000000       4.100587500000      73.790558472000
       201    2        5.799105000000       4.100587500000      71.857035604000
       202    2        3.866070000000       4.100587500000      73.790558472000
       203    2        3.866070000000       1.366862500000      73.790558472000
       204    2        5.799105000000       1.366862500000      71.857035604000
       205    1        3.866070000000       0.000000000000      75.723127456000
       206    1        1.933035000000       2.733725000000      77.656650324000
       207    1        5.799105000000       2.733725000000      77.656650324000
       208    1        7.732140000000       0.000000000000      75.723127456000
       209    2        3.866070000000       1.366862500000      77.656650324000
       210    2        5.799105000000       1.366862500000      75.723127456000
       211    2        5.799105000000       4.100587500000      75.723127456000
       212    2        3.866070000000       4.100587500000      77.656650324000
       213    2        1.933035000000       4.100587500000      75.723127456000
       214    2        7.732140000000       4.100587500000      77.656650324000
       215    2        7.732140000000       1.366862500000      77.656650324000
       216    2        1.933035000000       1.366862500000      75.723127456000
       217    1        7.732140000000       0.000000000000      79.589219308000
       218    1        5.799105000000       2.733725000000      81.522742176000
       219    1        1.933035000000       2.733725000000      81.522742176000
       220    1        3.866070000000       0.000000000000      79.589219308000
       221    2        7.732140000000       1.366862500000      81.522742176000
       222    2        1.933035000000       1.366862500000      79.589219308000
       223    2        1.933035000000       4.100587500000      79.589219308000
       224    2        7.732140000000       4.100587500000      81.522742176000
       225    2        5.799105000000       4.100587500000      79.589219308000
       226    2        3.866070000000       4.100587500000      81.522742176000
       227    2        3.866070000000       1.366862500000      81.522742176000
       228    2        5.799105000000       1.366862500000      79.589219308000
       229    1        3.866070000000       0.000000000000      83.455311160000
       230    1        1.933035000000       2.733725000000      85.388834028000
       231    1        5.799105000000       2.733725000000      85.388834028000
       232    1        7.732140000000       0.000000000000      83.455311160000
       233    2        3.866070000000       1.366862500000      85.388834028000
       234    2        5.799105000000       1.366862500000      83.455311160000
       235    2        5.799105000000       4.100587500000      83.455311160000
       236    2        3.866070000000       4.100587500000      85.388834028000
       237    2        1.933035000000       4.100587500000      83.455311160000
       238    2        7.732140000000       4.100587500000      85.388834028000
       239    2        7.732140000000       1.366862500000      85.388834028000
       240    2        1.933035000000       1.366862500000      83.455311160000
