 # Ce2 O3
  
           3  atoms
           2  atom types
 
      0.000000000000       3.870983950000  xlo xhi
      0.000000000000       3.352370438342  ylo yhi
      0.000000000000       5.895772730000  zlo zhi
     -1.935491975000       0.000000000000       0.000000000000  xy xz yz
 
Masses
 
            1   140.11600000            # Ce
            2   15.99900000             # O
 
Atoms # charge
 
         1    1   3.000000       -0.000000019355       2.234913636736       1.407275435286
         2    2  -2.000000       -0.000000019355       2.234913636736       3.825698415618
         3    2  -2.000000        0.000000000000       0.000000000000       0.000000000000
