 # "Ce16 O32"
  
          48  atoms
           2  atom types
 
      0.000000000000      10.156000000000  xlo xhi
      0.000000000000      10.156000000000  ylo yhi
      0.000000000000       7.134000000000  zlo zhi
 
Masses
 
            1   140.11600000            # Ce
            2   15.99900000             # O
 
Atoms # atomic
 
         1    1        0.000000000000       0.000000000000       0.000000000000
         2    1        2.567335240000       2.567335240000       1.818242580000
         3    2        0.961976320000       4.172694160000       1.818242580000
         4    2        4.172694160000       0.961976320000       1.818242580000
         5    2        3.529210000000       3.529210000000       0.000000000000
         6    2        1.605358920000       1.605358920000       0.000000000000
         7    1       10.156000000000      10.156000000000       3.567000000000
         8    1        2.567335240000       2.567335240000       5.385242580000
         9    2        0.961976320000       4.172694160000       5.385242580000
        10    2        4.172694160000       0.961976320000       5.385242580000
        11    2        3.529210000000       3.529210000000       3.567000000000
        12    2        1.605358920000       1.605358920000       3.567000000000
        13    1       10.156000000000       5.078000000000       0.000000000000
        14    1        2.567335240000       7.645335240000       1.818242580000
        15    2        0.961976320000       9.250694160000       1.818242580000
        16    2        4.172694160000       6.039976320000       1.818242580000
        17    2        3.529210000000       8.607210000000       0.000000000000
        18    2        1.605358920000       6.683358920000       0.000000000000
        19    1       10.156000000000       5.078000000000       3.567000000000
        20    1        2.567335240000       7.645335240000       5.385242580000
        21    2        0.961976320000       9.250694160000       5.385242580000
        22    2        4.172694160000       6.039976320000       5.385242580000
        23    2        3.529210000000       8.607210000000       3.567000000000
        24    2        1.605358920000       6.683358920000       3.567000000000
        25    1        5.078000000000       0.000000000000       0.000000000000
        26    1        7.645335240000       2.567335240000       1.818242580000
        27    2        6.039976320000       4.172694160000       1.818242580000
        28    2        9.250694160000       0.961976320000       1.818242580000
        29    2        8.607210000000       3.529210000000       0.000000000000
        30    2        6.683358920000       1.605358920000       0.000000000000
        31    1        5.078000000000      10.156000000000       3.567000000000
        32    1        7.645335240000       2.567335240000       5.385242580000
        33    2        6.039976320000       4.172694160000       5.385242580000
        34    2        9.250694160000       0.961976320000       5.385242580000
        35    2        8.607210000000       3.529210000000       3.567000000000
        36    2        6.683358920000       1.605358920000       3.567000000000
        37    1        5.078000000000       5.078000000000       0.000000000000
        38    1        7.645335240000       7.645335240000       1.818242580000
        39    2        6.039976320000       9.250694160000       1.818242580000
        40    2        9.250694160000       6.039976320000       1.818242580000
        41    2        8.607210000000       8.607210000000       0.000000000000
        42    2        6.683358920000       6.683358920000       0.000000000000
        43    1        5.078000000000       5.078000000000       3.567000000000
        44    1        7.645335240000       7.645335240000       5.385242580000
        45    2        6.039976320000       9.250694160000       5.385242580000
        46    2        9.250694160000       6.039976320000       5.385242580000
        47    2        8.607210000000       8.607210000000       3.567000000000
        48    2        6.683358920000       6.683358920000       3.567000000000
