 # Ce2 O4
  
           2  atoms
           2  atom types
 
      0.000000000000       5.134657000000  xlo xhi
      0.000000000000       5.134657000000  ylo yhi
      0.000000000000       3.636420000000  zlo zhi
 
Masses
 
            1   140.11600000            # Ce
            2   15.99900000             # O
 
Atoms # charge
 
         1    1   4.000000        0.000000000000       0.000000000000       0.000000000000
         2    2  -2.000000        0.961926642380       4.172730357620       1.818210000000
