 # "Ce2 O4"
  
           6  atoms
           2  atom types
 
      0.000000000000       5.078000000000  xlo xhi
      0.000000000000       5.078000000000  ylo yhi
      0.000000000000       3.567000000000  zlo zhi
 
Masses
 
            1   140.11600000            # Ce
            2   15.99900000             # O
 
Atoms
 
         1         1   4.0        0.000000000000       0.000000000000       0.000000000000
         2         1   4.0        2.567335240000       2.567335240000       1.818206910000
         3         2   -2.0        0.961925540000       4.172744940000       1.818206910000
         4         2   -2.0        4.172744940000       0.961925540000       1.818206910000
         5         2   -2.0        3.529260780000       3.529260780000       0.000000000000
         6         2   -2.0        1.605409700000       1.605409700000       0.000000000000
