 # 			 cerianite-(Ce) -
  
           2  atoms
           2  atom types
 
      0.000000000000       5.415000000000  xlo xhi
      0.000000000000       5.415000000000  ylo yhi
      0.000000000000       5.415000000000  zlo zhi
 
Masses
 
            1   15.99900000             # O
            2   140.11600000            # Ce
 
Atoms # charge
 
         1    1   0.000000        1.353750000000       1.353750000000       1.353750000000
         2    2   0.000000        0.000000000000       0.000000000000       0.000000000000
