 # "Ce2 O4"
  
           6  atoms
           2  atom types
 
0.0 6.652180000000002 xlo xhi
0.0 6.652180000000002 ylo yhi
0.0 4.672770000000002 zlo zhi
 
Masses
 
            1   140.11600000            # Ce
            2   15.99900000             # O
 
Atoms
 
1 1 4.0 0.0 0.0 0.0
2 1 4.0 3.3632091644000006 3.3632091644000006 2.3818510521000005
3 2 -2.0 1.2601224574000003 5.466295871400002 2.3818510521000005
4 2 -2.0 5.466295871400002 1.2601224574000003 2.3818510521000005
5 2 -2.0 4.623331621800001 4.623331621800001 0.0
6 2 -2.0 2.1030867070000006 2.1030867070000006 0.0
