 # "Ce2 O4"
  
           6  atoms
           2  atom types
 
0.0 5.636580000000001 xlo xhi
0.0 5.636580000000001 ylo yhi
0.0 3.9593700000000007 zlo zhi
 
Masses
 
            1   140.11600000            # Ce
            2   15.99900000             # O
 
Atoms
 
1 1 4.0 0.0 0.0 0.0
2 1 4.0 2.8497421164 2.8497421164 2.0182096701
3 2 -2.0 1.0677373494 4.631746883400001 2.0182096701
4 2 -2.0 4.631746883400001 1.0677373494 2.0182096701
5 2 -2.0 3.9174794658000005 3.9174794658000005 0.0
6 2 -2.0 1.7820047670000003 1.7820047670000003 0.0
