 # "Ce2 O4"
  
           6  atoms
           2  atom types
 
0.0 8.226360000000003 xlo xhi
0.0 8.226360000000003 ylo yhi
0.0 5.778540000000002 zlo zhi
 
Masses
 
            1   140.11600000            # Ce
            2   15.99900000             # O
 
Atoms
 
1 1 4.0 0.0 0.0 0.0
2 1 4.0 4.159083088800001 4.159083088800001 2.945495194200001
3 2 -2.0 1.5583193748000004 6.759846802800003 2.945495194200001
4 2 -2.0 6.759846802800003 1.5583193748000004 2.945495194200001
5 2 -2.0 5.717402463600002 5.717402463600002 0.0
6 2 -2.0 2.600763714000001 2.600763714000001 0.0
