 # "Ce2 O4"
  
           6  atoms
           2  atom types
 
0.0 7.464660000000003 xlo xhi
0.0 7.464660000000003 ylo yhi
0.0 5.243490000000001 zlo zhi
 
Masses
 
            1   140.11600000            # Ce
            2   15.99900000             # O
 
Atoms
 
1 1 4.0 0.0 0.0 0.0
2 1 4.0 3.773982802800001 3.773982802800001 2.672764157700001
3 2 -2.0 1.4140305438000003 6.133935061800003 2.672764157700001
4 2 -2.0 6.133935061800003 1.4140305438000003 2.672764157700001
5 2 -2.0 5.188013346600002 5.188013346600002 0.0
6 2 -2.0 2.359952259000001 2.359952259000001 0.0
