 # "Ce2 O4"
  
           6  atoms
           2  atom types
 
0.0 5.17956 xlo xhi
0.0 5.17956 ylo yhi
0.0 3.6383400000000004 zlo zhi
 
Masses
 
            1   140.11600000            # Ce
            2   15.99900000             # O
 
Atoms
 
1 1 4.0 0.0 0.0 0.0
2 1 4.0 2.6186819448 2.6186819448 1.8545710482
3 2 -2.0 0.9811640508 4.256199838800001 1.8545710482
4 2 -2.0 4.256199838800001 0.9811640508 1.8545710482
5 2 -2.0 3.5998459956 3.5998459956 0.0
6 2 -2.0 1.6375178940000001 1.6375178940000001 0.0
