 # "Ce2 O4"
  
           6  atoms
           2  atom types
 
0.0 8.378700000000004 xlo xhi
0.0 8.378700000000004 ylo yhi
0.0 5.885550000000002 zlo zhi
 
Masses
 
            1   140.11600000            # Ce
            2   15.99900000             # O
 
Atoms
 
1 1 4.0 0.0 0.0 0.0
2 1 4.0 4.236103146000001 4.236103146000001 3.000041401500001
3 2 -2.0 1.5871771410000004 6.885029151000003 3.000041401500001
4 2 -2.0 6.885029151000003 1.5871771410000004 3.000041401500001
5 2 -2.0 5.823280287000002 5.823280287000002 0.0
6 2 -2.0 2.648926005000001 2.648926005000001 0.0
