 # "Ce2 O4"
  
           6  atoms
           2  atom types
 
0.0 6.550620000000002 xlo xhi
0.0 6.550620000000002 ylo yhi
0.0 4.6014300000000015 zlo zhi
 
Masses
 
            1   140.11600000            # Ce
            2   15.99900000             # O
 
Atoms
 
1 1 4.0 0.0 0.0 0.0
2 1 4.0 3.3118624596000004 3.3118624596000004 2.3454869139000003
3 2 -2.0 1.2408839466000001 5.382840972600001 2.3454869139000003
4 2 -2.0 5.382840972600001 1.2408839466000001 2.3454869139000003
5 2 -2.0 4.552746406200001 4.552746406200001 0.0
6 2 -2.0 2.0709785130000005 2.0709785130000005 0.0
