 # "Ce2 O4"
  
           6  atoms
           2  atom types
 
0.0 7.617000000000003 xlo xhi
0.0 7.617000000000003 ylo yhi
0.0 5.350500000000002 zlo zhi
 
Masses
 
            1   140.11600000            # Ce
            2   15.99900000             # O
 
Atoms
 
1 1 4.0 0.0 0.0 0.0
2 1 4.0 3.851002860000001 3.851002860000001 2.727310365000001
3 2 -2.0 1.4428883100000003 6.259117410000003 2.727310365000001
4 2 -2.0 6.259117410000003 1.4428883100000003 2.727310365000001
5 2 -2.0 5.293891170000002 5.293891170000002 0.0
6 2 -2.0 2.408114550000001 2.408114550000001 0.0
