 # "Ce2 O4"
  
           6  atoms
           2  atom types
 
0.0 7.312320000000002 xlo xhi
0.0 7.312320000000002 ylo yhi
0.0 5.1364800000000015 zlo zhi
 
Masses
 
            1   140.11600000            # Ce
            2   15.99900000             # O
 
Atoms
 
1 1 4.0 0.0 0.0 0.0
2 1 4.0 3.6969627456000005 3.6969627456000005 2.618217950400001
3 2 -2.0 1.3851727776000002 6.008752713600002 2.618217950400001
4 2 -2.0 6.008752713600002 1.3851727776000002 2.618217950400001
5 2 -2.0 5.082135523200002 5.082135523200002 0.0
6 2 -2.0 2.3117899680000007 2.3117899680000007 0.0
