 # "Ce2 O4"
  
           6  atoms
           2  atom types
 
0.0 8.480260000000003 xlo xhi
0.0 8.480260000000003 ylo yhi
0.0 5.956890000000002 zlo zhi
 
Masses
 
            1   140.11600000            # Ce
            2   15.99900000             # O
 
Atoms
 
1 1 4.0 0.0 0.0 0.0
2 1 4.0 4.287449850800002 4.287449850800002 3.036405539700001
3 2 -2.0 1.6064156518000006 6.968484049800003 3.036405539700001
4 2 -2.0 6.968484049800003 1.6064156518000006 3.036405539700001
5 2 -2.0 5.893865502600002 5.893865502600002 0.0
6 2 -2.0 2.681034199000001 2.681034199000001 0.0
