 # "Ce2 O4"
  
           6  atoms
           2  atom types
 
0.0 8.124800000000004 xlo xhi
0.0 8.124800000000004 ylo yhi
0.0 5.707200000000002 zlo zhi
 
Masses
 
            1   140.11600000            # Ce
            2   15.99900000             # O
 
Atoms
 
1 1 4.0 0.0 0.0 0.0
2 1 4.0 4.107736384000001 4.107736384000001 2.909131056000001
3 2 -2.0 1.5390808640000004 6.676391904000003 2.909131056000001
4 2 -2.0 6.676391904000003 1.5390808640000004 2.909131056000001
5 2 -2.0 5.646817248000002 5.646817248000002 0.0
6 2 -2.0 2.568655520000001 2.568655520000001 0.0
