 # "Ce2 O4"
  
           6  atoms
           2  atom types
 
0.0 4.87488 xlo xhi
0.0 4.87488 ylo yhi
0.0 3.4243200000000003 zlo zhi
 
Masses
 
            1   140.11600000            # Ce
            2   15.99900000             # O
 
Atoms
 
1 1 4.0 0.0 0.0 0.0
2 1 4.0 2.4646418303999997 2.4646418303999997 1.7454786335999999
3 2 -2.0 0.9234485184 4.0058351424000005 1.7454786335999999
4 2 -2.0 4.0058351424000005 0.9234485184 1.7454786335999999
5 2 -2.0 3.3880903488 3.3880903488 0.0
6 2 -2.0 1.541193312 1.541193312 0.0
