 # "Ce2 O4"
  
           6  atoms
           2  atom types
 
0.0 6.3982800000000015 xlo xhi
0.0 6.3982800000000015 ylo yhi
0.0 4.494420000000001 zlo zhi
 
Masses
 
            1   140.11600000            # Ce
            2   15.99900000             # O
 
Atoms
 
1 1 4.0 0.0 0.0 0.0
2 1 4.0 3.2348424024000004 3.2348424024000004 2.2909407066000003
3 2 -2.0 1.2120261804 5.257658624400001 2.2909407066000003
4 2 -2.0 5.257658624400001 1.2120261804 2.2909407066000003
5 2 -2.0 4.4468685828000005 4.4468685828000005 0.0
6 2 -2.0 2.0228162220000003 2.0228162220000003 0.0
