 # "Ce2 O4"
  
           6  atoms
           2  atom types
 
0.0 7.058420000000003 xlo xhi
0.0 7.058420000000003 ylo yhi
0.0 4.9581300000000015 zlo zhi
 
Masses
 
            1   140.11600000            # Ce
            2   15.99900000             # O
 
Atoms
 
1 1 4.0 0.0 0.0 0.0
2 1 4.0 3.5685959836000007 3.5685959836000007 2.5273076049000007
3 2 -2.0 1.3370765006000003 5.800115466600002 2.5273076049000007
4 2 -2.0 5.800115466600002 1.3370765006000003 2.5273076049000007
5 2 -2.0 4.905672484200001 4.905672484200001 0.0
6 2 -2.0 2.2315194830000005 2.2315194830000005 0.0
