 # "Ce2 O4"
  
           6  atoms
           2  atom types
 
0.0 8.429480000000003 xlo xhi
0.0 8.429480000000003 ylo yhi
0.0 5.921220000000003 zlo zhi
 
Masses
 
            1   140.11600000            # Ce
            2   15.99900000             # O
 
Atoms
 
1 1 4.0 0.0 0.0 0.0
2 1 4.0 4.2617764984000015 4.2617764984000015 3.018223470600001
3 2 -2.0 1.5967963964000005 6.926756600400003 3.018223470600001
4 2 -2.0 6.926756600400003 1.5967963964000005 3.018223470600001
5 2 -2.0 5.858572894800002 5.858572894800002 0.0
6 2 -2.0 2.6649801020000012 2.6649801020000012 0.0
