 # "Ce2 O4"
  
           6  atoms
           2  atom types
 
0.0 7.210760000000002 xlo xhi
0.0 7.210760000000002 ylo yhi
0.0 5.065140000000001 zlo zhi
 
Masses
 
            1   140.11600000            # Ce
            2   15.99900000             # O
 
Atoms
 
1 1 4.0 0.0 0.0 0.0
2 1 4.0 3.6456160408000007 3.6456160408000007 2.5818538122000008
3 2 -2.0 1.3659342668000003 5.925297814800002 2.5818538122000008
4 2 -2.0 5.925297814800002 1.3659342668000003 2.5818538122000008
5 2 -2.0 5.011550307600001 5.011550307600001 0.0
6 2 -2.0 2.2796817740000006 2.2796817740000006 0.0
