 # "Ce2 O4"
  
           6  atoms
           2  atom types
 
0.0 7.667780000000003 xlo xhi
0.0 7.667780000000003 ylo yhi
0.0 5.386170000000002 zlo zhi
 
Masses
 
            1   140.11600000            # Ce
            2   15.99900000             # O
 
Atoms
 
1 1 4.0 0.0 0.0 0.0
2 1 4.0 3.876676212400001 3.876676212400001 2.745492434100001
3 2 -2.0 1.4525075654000004 6.300844859400002 2.745492434100001
4 2 -2.0 6.300844859400002 1.4525075654000004 2.745492434100001
5 2 -2.0 5.329183777800002 5.329183777800002 0.0
6 2 -2.0 2.424168647000001 2.424168647000001 0.0
