 # "Ce2 O4"
  
           6  atoms
           2  atom types
 
0.0 5.382680000000001 xlo xhi
0.0 5.382680000000001 ylo yhi
0.0 3.7810200000000003 zlo zhi
 
Masses
 
            1   140.11600000            # Ce
            2   15.99900000             # O
 
Atoms
 
1 1 4.0 0.0 0.0 0.0
2 1 4.0 2.7213753544 2.7213753544 1.9272993246
3 2 -2.0 1.0196410724 4.4231096364 1.9272993246
4 2 -2.0 4.4231096364 1.0196410724 1.9272993246
5 2 -2.0 3.7410164268000003 3.7410164268000003 0.0
6 2 -2.0 1.701734282 1.701734282 0.0
