 # "Ce2 O4"
  
           6  atoms
           2  atom types
 
0.0 5.738140000000001 xlo xhi
0.0 5.738140000000001 ylo yhi
0.0 4.030710000000001 zlo zhi
 
Masses
 
            1   140.11600000            # Ce
            2   15.99900000             # O
 
Atoms
 
1 1 4.0 0.0 0.0 0.0
2 1 4.0 2.9010888212 2.9010888212 2.0545738083000002
3 2 -2.0 1.0869758602000001 4.715201782200001 2.0545738083000002
4 2 -2.0 4.715201782200001 1.0869758602000001 2.0545738083000002
5 2 -2.0 3.9880646814000005 3.9880646814000005 0.0
6 2 -2.0 1.8141129610000002 1.8141129610000002 0.0
