 # "Ce2 O4"
  
           6  atoms
           2  atom types
 
0.0 6.347500000000002 xlo xhi
0.0 6.347500000000002 ylo yhi
0.0 4.458750000000001 zlo zhi
 
Masses
 
            1   140.11600000            # Ce
            2   15.99900000             # O
 
Atoms
 
1 1 4.0 0.0 0.0 0.0
2 1 4.0 3.2091690500000003 3.2091690500000003 2.2727586375000004
3 2 -2.0 1.2024069250000002 5.2159311750000015 2.2727586375000004
4 2 -2.0 5.2159311750000015 1.2024069250000002 2.2727586375000004
5 2 -2.0 4.411575975000001 4.411575975000001 0.0
6 2 -2.0 2.0067621250000003 2.0067621250000003 0.0
