 # "Ce2 O4"
  
           6  atoms
           2  atom types
 
0.0 6.245940000000002 xlo xhi
0.0 6.245940000000002 ylo yhi
0.0 4.387410000000001 zlo zhi
 
Masses
 
            1   140.11600000            # Ce
            2   15.99900000             # O
 
Atoms
 
1 1 4.0 0.0 0.0 0.0
2 1 4.0 3.1578223452000005 3.1578223452000005 2.2363944993000002
3 2 -2.0 1.1831684142 5.132476276200001 2.2363944993000002
4 2 -2.0 5.132476276200001 1.1831684142 2.2363944993000002
5 2 -2.0 4.3409907594 4.3409907594 0.0
6 2 -2.0 1.9746539310000004 1.9746539310000004 0.0
