 # "Ce2 O4"
  
           6  atoms
           2  atom types
 
0.0 6.499840000000002 xlo xhi
0.0 6.499840000000002 ylo yhi
0.0 4.565760000000001 zlo zhi
 
Masses
 
            1   140.11600000            # Ce
            2   15.99900000             # O
 
Atoms
 
1 1 4.0 0.0 0.0 0.0
2 1 4.0 3.2861891072000002 3.2861891072000002 2.3273048448000004
3 2 -2.0 1.2312646912000003 5.3411135232000015 2.3273048448000004
4 2 -2.0 5.3411135232000015 1.2312646912000003 2.3273048448000004
5 2 -2.0 4.517453798400001 4.517453798400001 0.0
6 2 -2.0 2.0549244160000004 2.0549244160000004 0.0
