 # "Ce2 O4"
  
           6  atoms
           2  atom types
 
0.0 8.175580000000004 xlo xhi
0.0 8.175580000000004 ylo yhi
0.0 5.742870000000003 zlo zhi
 
Masses
 
            1   140.11600000            # Ce
            2   15.99900000             # O
 
Atoms
 
1 1 4.0 0.0 0.0 0.0
2 1 4.0 4.133409736400001 4.133409736400001 2.927313125100001
3 2 -2.0 1.5487001194000005 6.718119353400002 2.927313125100001
4 2 -2.0 6.718119353400002 1.5487001194000005 2.927313125100001
5 2 -2.0 5.682109855800002 5.682109855800002 0.0
6 2 -2.0 2.584709617000001 2.584709617000001 0.0
