 # "Ce2 O4"
  
           6  atoms
           2  atom types
 
0.0 7.718560000000003 xlo xhi
0.0 7.718560000000003 ylo yhi
0.0 5.421840000000002 zlo zhi
 
Masses
 
            1   140.11600000            # Ce
            2   15.99900000             # O
 
Atoms
 
1 1 4.0 0.0 0.0 0.0
2 1 4.0 3.902349564800001 3.902349564800001 2.7636745032000007
3 2 -2.0 1.4621268208000004 6.342572308800002 2.7636745032000007
4 2 -2.0 6.342572308800002 1.4621268208000004 2.7636745032000007
5 2 -2.0 5.3644763856000015 5.3644763856000015 0.0
6 2 -2.0 2.4402227440000006 2.4402227440000006 0.0
