 # "Ce2 O4"
  
           6  atoms
           2  atom types
 
0.0 5.535020000000001 xlo xhi
0.0 5.535020000000001 ylo yhi
0.0 3.8880300000000005 zlo zhi
 
Masses
 
            1   140.11600000            # Ce
            2   15.99900000             # O
 
Atoms
 
1 1 4.0 0.0 0.0 0.0
2 1 4.0 2.7983954116 2.7983954116 1.9818455319000001
3 2 -2.0 1.0484988386 4.5482919846000005 1.9818455319000001
4 2 -2.0 4.5482919846000005 1.0484988386 1.9818455319000001
5 2 -2.0 3.8468942502 3.8468942502 0.0
6 2 -2.0 1.7498965730000002 1.7498965730000002 0.0
