 # "Ce2 O4"
  
           6  atoms
           2  atom types
 
0.0 7.820120000000003 xlo xhi
0.0 7.820120000000003 ylo yhi
0.0 5.493180000000002 zlo zhi
 
Masses
 
            1   140.11600000            # Ce
            2   15.99900000             # O
 
Atoms
 
1 1 4.0 0.0 0.0 0.0
2 1 4.0 3.953696269600001 3.953696269600001 2.800038641400001
3 2 -2.0 1.4813653316000004 6.4260272076000025 2.800038641400001
4 2 -2.0 6.4260272076000025 1.4813653316000004 2.800038641400001
5 2 -2.0 5.435061601200002 5.435061601200002 0.0
6 2 -2.0 2.4723309380000007 2.4723309380000007 0.0
