 # "Ce2 O4"
  
           6  atoms
           2  atom types
 
0.0 6.702960000000002 xlo xhi
0.0 6.702960000000002 ylo yhi
0.0 4.708440000000001 zlo zhi
 
Masses
 
            1   140.11600000            # Ce
            2   15.99900000             # O
 
Atoms
 
1 1 4.0 0.0 0.0 0.0
2 1 4.0 3.3888825168000003 3.3888825168000003 2.4000331212000003
3 2 -2.0 1.2697417128000001 5.508023320800001 2.4000331212000003
4 2 -2.0 5.508023320800001 1.2697417128000001 2.4000331212000003
5 2 -2.0 4.658624229600001 4.658624229600001 0.0
6 2 -2.0 2.1191408040000006 2.1191408040000006 0.0
