 # "Ce2 O4"
  
           6  atoms
           2  atom types
 
0.0 5.078 xlo xhi
0.0 5.078 ylo yhi
0.0 3.567 zlo zhi
 
Masses
 
            1   140.11600000            # Ce
            2   15.99900000             # O
 
Atoms
 
1 1 4.0 0.0 0.0 0.0
2 1 4.0 2.56733524 2.56733524 1.81820691
3 2 -2.0 0.96192554 4.17274494 1.81820691
4 2 -2.0 4.17274494 0.96192554 1.81820691
5 2 -2.0 3.52926078 3.52926078 0.0
6 2 -2.0 1.6054097 1.6054097 0.0
