 # "Ce2 O4"
  
           6  atoms
           2  atom types
 
0.0 5.9412600000000015 xlo xhi
0.0 5.9412600000000015 ylo yhi
0.0 4.17339 zlo zhi
 
Masses
 
            1   140.11600000            # Ce
            2   15.99900000             # O
 
Atoms
 
1 1 4.0 0.0 0.0 0.0
2 1 4.0 3.0037822308 3.0037822308 2.1273020847
3 2 -2.0 1.1254528818 4.882111579800001 2.1273020847
4 2 -2.0 4.882111579800001 1.1254528818 2.1273020847
5 2 -2.0 4.129235112600001 4.129235112600001 0.0
6 2 -2.0 1.8783293490000004 1.8783293490000004 0.0
