 # "Ce2 O4"
  
           6  atoms
           2  atom types
 
0.0 5.8397000000000014 xlo xhi
0.0 5.8397000000000014 ylo yhi
0.0 4.102050000000001 zlo zhi
 
Masses
 
            1   140.11600000            # Ce
            2   15.99900000             # O
 
Atoms
 
1 1 4.0 0.0 0.0 0.0
2 1 4.0 2.952435526 2.952435526 2.0909379465000004
3 2 -2.0 1.106214371 4.798656681000001 2.0909379465000004
4 2 -2.0 4.798656681000001 1.106214371 2.0909379465000004
5 2 -2.0 4.0586498970000005 4.0586498970000005 0.0
6 2 -2.0 1.8462211550000003 1.8462211550000003 0.0
