 # "Ce2 O4"
  
           6  atoms
           2  atom types
 
0.0 5.890480000000001 xlo xhi
0.0 5.890480000000001 ylo yhi
0.0 4.137720000000001 zlo zhi
 
Masses
 
            1   140.11600000            # Ce
            2   15.99900000             # O
 
Atoms
 
1 1 4.0 0.0 0.0 0.0
2 1 4.0 2.9781088784 2.9781088784 2.1091200156000003
3 2 -2.0 1.1158336264000002 4.840384130400001 2.1091200156000003
4 2 -2.0 4.840384130400001 1.1158336264000002 2.1091200156000003
5 2 -2.0 4.0939425048 4.0939425048 0.0
6 2 -2.0 1.8622752520000003 1.8622752520000003 0.0
