 # "Ce2 O4"
  
           6  atoms
           2  atom types
 
0.0 5.687360000000001 xlo xhi
0.0 5.687360000000001 ylo yhi
0.0 3.9950400000000004 zlo zhi
 
Masses
 
            1   140.11600000            # Ce
            2   15.99900000             # O
 
Atoms
 
1 1 4.0 0.0 0.0 0.0
2 1 4.0 2.8754154688 2.8754154688 2.0363917392000004
3 2 -2.0 1.0773566048 4.673474332800001 2.0363917392000004
4 2 -2.0 4.673474332800001 1.0773566048 2.0363917392000004
5 2 -2.0 3.9527720736000003 3.9527720736000003 0.0
6 2 -2.0 1.7980588640000001 1.7980588640000001 0.0
