 # "Ce2 O4"
  
           6  atoms
           2  atom types
 
0.0 4.92566 xlo xhi
0.0 4.92566 ylo yhi
0.0 3.45999 zlo zhi
 
Masses
 
            1   140.11600000            # Ce
            2   15.99900000             # O
 
Atoms
 
1 1 4.0 0.0 0.0 0.0
2 1 4.0 2.4903151828 2.4903151828 1.7636607027
3 2 -2.0 0.9330677737999999 4.0475625918 1.7636607027
4 2 -2.0 4.0475625918 0.9330677737999999 1.7636607027
5 2 -2.0 3.4233829566 3.4233829566 0.0
6 2 -2.0 1.557247409 1.557247409 0.0
