 # "Ce2 O4"
  
           6  atoms
           2  atom types
 
0.0 8.327920000000004 xlo xhi
0.0 8.327920000000004 ylo yhi
0.0 5.849880000000002 zlo zhi
 
Masses
 
            1   140.11600000            # Ce
            2   15.99900000             # O
 
Atoms
 
1 1 4.0 0.0 0.0 0.0
2 1 4.0 4.210429793600001 4.210429793600001 2.981859332400001
3 2 -2.0 1.5775578856000005 6.843301701600003 2.981859332400001
4 2 -2.0 6.843301701600003 1.5775578856000005 2.981859332400001
5 2 -2.0 5.787987679200002 5.787987679200002 0.0
6 2 -2.0 2.632871908000001 2.632871908000001 0.0
