 # "Ce2 O4"
  
           6  atoms
           2  atom types
 
0.0 5.433460000000001 xlo xhi
0.0 5.433460000000001 ylo yhi
0.0 3.8166900000000004 zlo zhi
 
Masses
 
            1   140.11600000            # Ce
            2   15.99900000             # O
 
Atoms
 
1 1 4.0 0.0 0.0 0.0
2 1 4.0 2.7470487068 2.7470487068 1.9454813937000002
3 2 -2.0 1.0292603278 4.4648370858 1.9454813937000002
4 2 -2.0 4.4648370858 1.0292603278 1.9454813937000002
5 2 -2.0 3.7763090346 3.7763090346 0.0
6 2 -2.0 1.7177883790000001 1.7177883790000001 0.0
