 # "Ce2 O4"
  
           6  atoms
           2  atom types
 
0.0 6.855300000000002 xlo xhi
0.0 6.855300000000002 ylo yhi
0.0 4.815450000000001 zlo zhi
 
Masses
 
            1   140.11600000            # Ce
            2   15.99900000             # O
 
Atoms
 
1 1 4.0 0.0 0.0 0.0
2 1 4.0 3.4659025740000007 3.4659025740000007 2.4545793285000004
3 2 -2.0 1.2985994790000002 5.633205669000001 2.4545793285000004
4 2 -2.0 5.633205669000001 1.2985994790000002 2.4545793285000004
5 2 -2.0 4.764502053000001 4.764502053000001 0.0
6 2 -2.0 2.1673030950000007 2.1673030950000007 0.0
