 # "Ce2 O4"
  
           6  atoms
           2  atom types
 
0.0 5.585800000000001 xlo xhi
0.0 5.585800000000001 ylo yhi
0.0 3.9237000000000006 zlo zhi
 
Masses
 
            1   140.11600000            # Ce
            2   15.99900000             # O
 
Atoms
 
1 1 4.0 0.0 0.0 0.0
2 1 4.0 2.824068764 2.824068764 2.000027601
3 2 -2.0 1.0581180940000001 4.590019434000001 2.000027601
4 2 -2.0 4.590019434000001 1.0581180940000001 2.000027601
5 2 -2.0 3.8821868580000003 3.8821868580000003 0.0
6 2 -2.0 1.7659506700000003 1.7659506700000003 0.0
