 # "Ce2 O4"
  
           6  atoms
           2  atom types
 
0.0 5.788920000000001 xlo xhi
0.0 5.788920000000001 ylo yhi
0.0 4.0663800000000005 zlo zhi
 
Masses
 
            1   140.11600000            # Ce
            2   15.99900000             # O
 
Atoms
 
1 1 4.0 0.0 0.0 0.0
2 1 4.0 2.9267621736000002 2.9267621736000002 2.0727558774
3 2 -2.0 1.0965951156 4.756929231600001 2.0727558774
4 2 -2.0 4.756929231600001 1.0965951156 2.0727558774
5 2 -2.0 4.023357289200001 4.023357289200001 0.0
6 2 -2.0 1.8301670580000002 1.8301670580000002 0.0
