 # "Ce2 O4"
  
           6  atoms
           2  atom types
 
0.0 4.97644 xlo xhi
0.0 4.97644 ylo yhi
0.0 3.49566 zlo zhi
 
Masses
 
            1   140.11600000            # Ce
            2   15.99900000             # O
 
Atoms
 
1 1 4.0 0.0 0.0 0.0
2 1 4.0 2.5159885351999995 2.5159885351999995 1.7818427718
3 2 -2.0 0.9426870291999999 4.0892900412 1.7818427718
4 2 -2.0 4.0892900412 0.9426870291999999 1.7818427718
5 2 -2.0 3.4586755644 3.4586755644 0.0
6 2 -2.0 1.573301506 1.573301506 0.0
