 # "Ce2 O4"
  
           6  atoms
           2  atom types
 
0.0 6.601400000000002 xlo xhi
0.0 6.601400000000002 ylo yhi
0.0 4.637100000000001 zlo zhi
 
Masses
 
            1   140.11600000            # Ce
            2   15.99900000             # O
 
Atoms
 
1 1 4.0 0.0 0.0 0.0
2 1 4.0 3.3375358120000005 3.3375358120000005 2.3636689830000006
3 2 -2.0 1.2505032020000002 5.424568422000002 2.3636689830000006
4 2 -2.0 5.424568422000002 1.2505032020000002 2.3636689830000006
5 2 -2.0 4.588039014000001 4.588039014000001 0.0
6 2 -2.0 2.0870326100000005 2.0870326100000005 0.0
