 # "Ce2 O4"
  
           6  atoms
           2  atom types
 
0.0 8.277140000000003 xlo xhi
0.0 8.277140000000003 ylo yhi
0.0 5.814210000000002 zlo zhi
 
Masses
 
            1   140.11600000            # Ce
            2   15.99900000             # O
 
Atoms
 
1 1 4.0 0.0 0.0 0.0
2 1 4.0 4.184756441200001 4.184756441200001 2.963677263300001
3 2 -2.0 1.5679386302000005 6.801574252200003 2.963677263300001
4 2 -2.0 6.801574252200003 1.5679386302000005 2.963677263300001
5 2 -2.0 5.752695071400002 5.752695071400002 0.0
6 2 -2.0 2.616817811000001 2.616817811000001 0.0
