 # "Ce2 O4"
  
           6  atoms
           2  atom types
 
0.0 7.363100000000003 xlo xhi
0.0 7.363100000000003 ylo yhi
0.0 5.172150000000002 zlo zhi
 
Masses
 
            1   140.11600000            # Ce
            2   15.99900000             # O
 
Atoms
 
1 1 4.0 0.0 0.0 0.0
2 1 4.0 3.7226360980000006 3.7226360980000006 2.636400019500001
3 2 -2.0 1.3947920330000003 6.050480163000002 2.636400019500001
4 2 -2.0 6.050480163000002 1.3947920330000003 2.636400019500001
5 2 -2.0 5.117428131000001 5.117428131000001 0.0
6 2 -2.0 2.3278440650000007 2.3278440650000007 0.0
