 # "Ce2 O4"
  
           6  atoms
           2  atom types
 
0.0 5.484240000000001 xlo xhi
0.0 5.484240000000001 ylo yhi
0.0 3.8523600000000005 zlo zhi
 
Masses
 
            1   140.11600000            # Ce
            2   15.99900000             # O
 
Atoms
 
1 1 4.0 0.0 0.0 0.0
2 1 4.0 2.7727220592 2.7727220592 1.9636634628
3 2 -2.0 1.0388795832 4.506564535200001 1.9636634628
4 2 -2.0 4.506564535200001 1.0388795832 1.9636634628
5 2 -2.0 3.8116016424000003 3.8116016424000003 0.0
6 2 -2.0 1.7338424760000002 1.7338424760000002 0.0
