 # "Ce2 O4"
  
           6  atoms
           2  atom types
 
0.0 7.769340000000003 xlo xhi
0.0 7.769340000000003 ylo yhi
0.0 5.457510000000002 zlo zhi
 
Masses
 
            1   140.11600000            # Ce
            2   15.99900000             # O
 
Atoms
 
1 1 4.0 0.0 0.0 0.0
2 1 4.0 3.9280229172000007 3.9280229172000007 2.781856572300001
3 2 -2.0 1.4717460762000003 6.384299758200003 2.781856572300001
4 2 -2.0 6.384299758200003 1.4717460762000003 2.781856572300001
5 2 -2.0 5.399768993400001 5.399768993400001 0.0
6 2 -2.0 2.4562768410000007 2.4562768410000007 0.0
