 # "Ce2 O4"
  
           6  atoms
           2  atom types
 
0.0 5.331900000000001 xlo xhi
0.0 5.331900000000001 ylo yhi
0.0 3.74535 zlo zhi
 
Masses
 
            1   140.11600000            # Ce
            2   15.99900000             # O
 
Atoms
 
1 1 4.0 0.0 0.0 0.0
2 1 4.0 2.695702002 2.695702002 1.9091172555
3 2 -2.0 1.010021817 4.381382187000001 1.9091172555
4 2 -2.0 4.381382187000001 1.010021817 1.9091172555
5 2 -2.0 3.705723819 3.705723819 0.0
6 2 -2.0 1.685680185 1.685680185 0.0
