 # "Ce2 O4"
  
           6  atoms
           2  atom types
 
0.0 8.074020000000003 xlo xhi
0.0 8.074020000000003 ylo yhi
0.0 5.671530000000002 zlo zhi
 
Masses
 
            1   140.11600000            # Ce
            2   15.99900000             # O
 
Atoms
 
1 1 4.0 0.0 0.0 0.0
2 1 4.0 4.082063031600001 4.082063031600001 2.890948986900001
3 2 -2.0 1.5294616086000004 6.634664454600003 2.890948986900001
4 2 -2.0 6.634664454600003 1.5294616086000004 2.890948986900001
5 2 -2.0 5.611524640200002 5.611524640200002 0.0
6 2 -2.0 2.552601423000001 2.552601423000001 0.0
