 # "Ce2 O4"
  
           6  atoms
           2  atom types
 
0.0 7.4138800000000025 xlo xhi
0.0 7.4138800000000025 ylo yhi
0.0 5.207820000000002 zlo zhi
 
Masses
 
            1   140.11600000            # Ce
            2   15.99900000             # O
 
Atoms
 
1 1 4.0 0.0 0.0 0.0
2 1 4.0 3.7483094504000007 3.7483094504000007 2.6545820886000007
3 2 -2.0 1.4044112884000004 6.092207612400002 2.6545820886000007
4 2 -2.0 6.092207612400002 1.4044112884000004 2.6545820886000007
5 2 -2.0 5.152720738800001 5.152720738800001 0.0
6 2 -2.0 2.343898162000001 2.343898162000001 0.0
