 # "Ce2 O4"
  
           6  atoms
           2  atom types
 
0.0 6.093600000000001 xlo xhi
0.0 6.093600000000001 ylo yhi
0.0 4.280400000000001 zlo zhi
 
Masses
 
            1   140.11600000            # Ce
            2   15.99900000             # O
 
Atoms
 
1 1 4.0 0.0 0.0 0.0
2 1 4.0 3.080802288 3.080802288 2.181848292
3 2 -2.0 1.154310648 5.007293928000001 2.181848292
4 2 -2.0 5.007293928000001 1.154310648 2.181848292
5 2 -2.0 4.235112936000001 4.235112936000001 0.0
6 2 -2.0 1.9264916400000003 1.9264916400000003 0.0
