 # "Ce2 O4"
  
           6  atoms
           2  atom types
 
0.0 6.296720000000001 xlo xhi
0.0 6.296720000000001 ylo yhi
0.0 4.423080000000001 zlo zhi
 
Masses
 
            1   140.11600000            # Ce
            2   15.99900000             # O
 
Atoms
 
1 1 4.0 0.0 0.0 0.0
2 1 4.0 3.1834956976 3.1834956976 2.2545765684000005
3 2 -2.0 1.1927876696000002 5.174203725600001 2.2545765684000005
4 2 -2.0 5.174203725600001 1.1927876696000002 2.2545765684000005
5 2 -2.0 4.376283367200001 4.376283367200001 0.0
6 2 -2.0 1.9907080280000005 1.9907080280000005 0.0
