 # "Ce2 O4"
  
           6  atoms
           2  atom types
 
0.0 6.906080000000002 xlo xhi
0.0 6.906080000000002 ylo yhi
0.0 4.851120000000002 zlo zhi
 
Masses
 
            1   140.11600000            # Ce
            2   15.99900000             # O
 
Atoms
 
1 1 4.0 0.0 0.0 0.0
2 1 4.0 3.4915759264000004 3.4915759264000004 2.4727613976000007
3 2 -2.0 1.3082187344000002 5.674933118400002 2.4727613976000007
4 2 -2.0 5.674933118400002 1.3082187344000002 2.4727613976000007
5 2 -2.0 4.799794660800001 4.799794660800001 0.0
6 2 -2.0 2.183357192000001 2.183357192000001 0.0
