 # Ce448 O896
  
        1344  atoms
           2  atom types
 
      0.000000000000      15.464284870000  xlo xhi
      0.000000000000      13.392463548779  ylo yhi
      0.000000000000     290.410321686958  zlo zhi
      7.732142435000       0.000000000000      -2.232077274635  xy xz yz
 
Masses
 
            1   140.11600000            # Ce
            2   15.99900000             # O
 
Atoms # charge
 
         1    1   4.000000        3.866071294821      -0.000000016416     288.832005478860
         2    1   4.000000        5.799106903571       3.348115870779     288.832005478860
         3    1   4.000000        7.732142512321       6.696231757974     288.832005478860
         4    1   4.000000        9.665178121071      10.044347645169     288.832005478860
         5    1   4.000000        7.732142512321      -0.000000016416     288.832005478860
         6    1   4.000000        9.665178121071       3.348115870779     288.832005478860
         7    1   4.000000       11.598213729821       6.696231757974     288.832005478860
         8    1   4.000000       13.531249338571      10.044347645169     288.832005478860
         9    1   4.000000       11.598213729821      -0.000000016416     288.832005478860
        10    1   4.000000       13.531249338571       3.348115870779     288.832005478860
        11    1   4.000000       15.464284947321       6.696231757974     288.832005478860
        12    1   4.000000       17.397320556071      10.044347645169     288.832005478860
        13    1   4.000000       15.464284947321      -0.000000016416     288.832005478860
        14    1   4.000000       17.397320556071       3.348115870779     288.832005478860
        15    1   4.000000       19.330356164821       6.696231757974     288.832005478860
        16    1   4.000000       21.263391773571      10.044347645169     288.832005478860
        17    1   4.000000        1.933035686071       1.116038635150     285.675370158561
        18    1   4.000000        3.866071294821       4.464154522344     285.675370158561
        19    1   4.000000        5.799106903571       7.812270409539     285.675370158561
        20    1   4.000000        7.732142512321      11.160386296734     285.675370158561
        21    1   4.000000        5.799106903571       1.116038635150     285.675370158561
        22    1   4.000000        7.732142512321       4.464154522344     285.675370158561
        23    1   4.000000        9.665178121071       7.812270409539     285.675370158561
        24    1   4.000000       11.598213729821      11.160386296734     285.675370158561
        25    1   4.000000        9.665178121071       1.116038635150     285.675370158561
        26    1   4.000000       11.598213729821       4.464154522344     285.675370158561
        27    1   4.000000       13.531249338571       7.812270409539     285.675370158561
        28    1   4.000000       15.464284947321      11.160386296734     285.675370158561
        29    1   4.000000       13.531249338571       1.116038635150     285.675370158561
        30    1   4.000000       15.464284947321       4.464154522344     285.675370158561
        31    1   4.000000       17.397320556071       7.812270409539     285.675370158561
        32    1   4.000000       19.330356164821      11.160386296734     285.675370158561
        33    1   4.000000        1.933035686071      -1.116038622801     282.518737742365
        34    1   4.000000        3.866071294821       2.232077264394     282.518737742365
        35    1   4.000000        5.799106903571       5.580193151589     282.518737742365
        36    1   4.000000        7.732142512321       8.928309038784     282.518737742365
        37    1   4.000000        5.799106903571      -1.116038622801     282.518737742365
        38    1   4.000000        7.732142512321       2.232077264394     282.518737742365
        39    1   4.000000        9.665178121071       5.580193151589     282.518737742365
        40    1   4.000000       11.598213729821       8.928309038784     282.518737742365
        41    1   4.000000        9.665178121071      -1.116038622801     282.518737742365
        42    1   4.000000       11.598213729821       2.232077264394     282.518737742365
        43    1   4.000000       13.531249338571       5.580193151589     282.518737742365
        44    1   4.000000       15.464284947321       8.928309038784     282.518737742365
        45    1   4.000000       13.531249338571      -1.116038622801     282.518737742365
        46    1   4.000000       15.464284947321       2.232077264394     282.518737742365
        47    1   4.000000       17.397320556071       5.580193151589     282.518737742365
        48    1   4.000000       19.330356164821       8.928309038784     282.518737742365
        49    1   4.000000        3.866071294821       0.000000028764     279.362102422066
        50    1   4.000000        5.799106903571       3.348115915959     279.362102422066
        51    1   4.000000        7.732142512321       6.696231803154     279.362102422066
        52    1   4.000000        9.665178121071      10.044347690349     279.362102422066
        53    1   4.000000        7.732142512321       0.000000028764     279.362102422066
        54    1   4.000000        9.665178121071       3.348115915959     279.362102422066
        55    1   4.000000       11.598213729821       6.696231803154     279.362102422066
        56    1   4.000000       13.531249338571      10.044347690349     279.362102422066
        57    1   4.000000       11.598213729821       0.000000028764     279.362102422066
        58    1   4.000000       13.531249338571       3.348115915959     279.362102422066
        59    1   4.000000       15.464284947321       6.696231803154     279.362102422066
        60    1   4.000000       17.397320556071      10.044347690349     279.362102422066
        61    1   4.000000       15.464284947321       0.000000028764     279.362102422066
        62    1   4.000000       17.397320556071       3.348115915959     279.362102422066
        63    1   4.000000       19.330356164821       6.696231803154     279.362102422066
        64    1   4.000000       21.263391773571      10.044347690349     279.362102422066
        65    1   4.000000        1.933035686071       1.116038658009     276.205470005871
        66    1   4.000000        3.866071294821       4.464154545203     276.205470005871
        67    1   4.000000        5.799106903571       7.812270432398     276.205470005871
        68    1   4.000000        7.732142512321      11.160386319593     276.205470005871
        69    1   4.000000        5.799106903571       1.116038658009     276.205470005871
        70    1   4.000000        7.732142512321       4.464154545203     276.205470005871
        71    1   4.000000        9.665178121071       7.812270432398     276.205470005871
        72    1   4.000000       11.598213729821      11.160386319593     276.205470005871
        73    1   4.000000        9.665178121071       1.116038658009     276.205470005871
        74    1   4.000000       11.598213729821       4.464154545203     276.205470005871
        75    1   4.000000       13.531249338571       7.812270432398     276.205470005871
        76    1   4.000000       15.464284947321      11.160386319593     276.205470005871
        77    1   4.000000       13.531249338571       1.116038658009     276.205470005871
        78    1   4.000000       15.464284947321       4.464154545203     276.205470005871
        79    1   4.000000       17.397320556071       7.812270432398     276.205470005871
        80    1   4.000000       19.330356164821      11.160386319593     276.205470005871
        81    1   4.000000        1.933035686071      -1.116038577621     273.048834685572
        82    1   4.000000        3.866071294821       2.232077309574     273.048834685572
        83    1   4.000000        5.799106903571       5.580193196769     273.048834685572
        84    1   4.000000        7.732142512321       8.928309083963     273.048834685572
        85    1   4.000000        5.799106903571      -1.116038577621     273.048834685572
        86    1   4.000000        7.732142512321       2.232077309574     273.048834685572
        87    1   4.000000        9.665178121071       5.580193196769     273.048834685572
        88    1   4.000000       11.598213729821       8.928309083963     273.048834685572
        89    1   4.000000        9.665178121071      -1.116038577621     273.048834685572
        90    1   4.000000       11.598213729821       2.232077309574     273.048834685572
        91    1   4.000000       13.531249338571       5.580193196769     273.048834685572
        92    1   4.000000       15.464284947321       8.928309083963     273.048834685572
        93    1   4.000000       13.531249338571      -1.116038577621     273.048834685572
        94    1   4.000000       15.464284947321       2.232077309574     273.048834685572
        95    1   4.000000       17.397320556071       5.580193196769     273.048834685572
        96    1   4.000000       19.330356164821       8.928309083963     273.048834685572
        97    1   4.000000        3.866071217500      -0.000000082301     269.892202269376
        98    1   4.000000        5.799106826250       3.348115804893     269.892202269376
        99    1   4.000000        7.732142435000       6.696231692088     269.892202269376
       100    1   4.000000        9.665178043750      10.044347579283     269.892202269376
       101    1   4.000000        7.732142435000      -0.000000082301     269.892202269376
       102    1   4.000000        9.665178043750       3.348115804893     269.892202269376
       103    1   4.000000       11.598213652500       6.696231692088     269.892202269376
       104    1   4.000000       13.531249261250      10.044347579283     269.892202269376
       105    1   4.000000       11.598213652500      -0.000000082301     269.892202269376
       106    1   4.000000       13.531249261250       3.348115804893     269.892202269376
       107    1   4.000000       15.464284870000       6.696231692088     269.892202269376
       108    1   4.000000       17.397320478750      10.044347579283     269.892202269376
       109    1   4.000000       15.464284870000      -0.000000082301     269.892202269376
       110    1   4.000000       17.397320478750       3.348115804893     269.892202269376
       111    1   4.000000       19.330356087500       6.696231692088     269.892202269376
       112    1   4.000000       21.263391696250      10.044347579283     269.892202269376
       113    1   4.000000        1.933035608750       1.116038569264     266.735566949077
       114    1   4.000000        3.866071217500       4.464154456459     266.735566949077
       115    1   4.000000        5.799106826250       7.812270343653     266.735566949077
       116    1   4.000000        7.732142435000      11.160386230848     266.735566949077
       117    1   4.000000        5.799106826250       1.116038569264     266.735566949077
       118    1   4.000000        7.732142435000       4.464154456459     266.735566949077
       119    1   4.000000        9.665178043750       7.812270343653     266.735566949077
       120    1   4.000000       11.598213652500      11.160386230848     266.735566949077
       121    1   4.000000        9.665178043750       1.116038569264     266.735566949077
       122    1   4.000000       11.598213652500       4.464154456459     266.735566949077
       123    1   4.000000       13.531249261250       7.812270343653     266.735566949077
       124    1   4.000000       15.464284870000      11.160386230848     266.735566949077
       125    1   4.000000       13.531249261250       1.116038569264     266.735566949077
       126    1   4.000000       15.464284870000       4.464154456459     266.735566949077
       127    1   4.000000       17.397320478750       7.812270343653     266.735566949077
       128    1   4.000000       19.330356087500      11.160386230848     266.735566949077
       129    1   4.000000        1.933035608750      -1.116038688687     263.578934532882
       130    1   4.000000        3.866071217500       2.232077198508     263.578934532882
       131    1   4.000000        5.799106826250       5.580193085703     263.578934532882
       132    1   4.000000        7.732142435000       8.928308972898     263.578934532882
       133    1   4.000000        5.799106826250      -1.116038688687     263.578934532882
       134    1   4.000000        7.732142435000       2.232077198508     263.578934532882
       135    1   4.000000        9.665178043750       5.580193085703     263.578934532882
       136    1   4.000000       11.598213652500       8.928308972898     263.578934532882
       137    1   4.000000        9.665178043750      -1.116038688687     263.578934532882
       138    1   4.000000       11.598213652500       2.232077198508     263.578934532882
       139    1   4.000000       13.531249261250       5.580193085703     263.578934532882
       140    1   4.000000       15.464284870000       8.928308972898     263.578934532882
       141    1   4.000000       13.531249261250      -1.116038688687     263.578934532882
       142    1   4.000000       15.464284870000       2.232077198508     263.578934532882
       143    1   4.000000       17.397320478750       5.580193085703     263.578934532882
       144    1   4.000000       19.330356087500       8.928308972898     263.578934532882
       145    1   4.000000        3.866071217500      -0.000000037122     260.422299212583
       146    1   4.000000        5.799106826250       3.348115850073     260.422299212583
       147    1   4.000000        7.732142435000       6.696231737268     260.422299212583
       148    1   4.000000        9.665178043750      10.044347624463     260.422299212583
       149    1   4.000000        7.732142435000      -0.000000037122     260.422299212583
       150    1   4.000000        9.665178043750       3.348115850073     260.422299212583
       151    1   4.000000       11.598213652500       6.696231737268     260.422299212583
       152    1   4.000000       13.531249261250      10.044347624463     260.422299212583
       153    1   4.000000       11.598213652500      -0.000000037122     260.422299212583
       154    1   4.000000       13.531249261250       3.348115850073     260.422299212583
       155    1   4.000000       15.464284870000       6.696231737268     260.422299212583
       156    1   4.000000       17.397320478750      10.044347624463     260.422299212583
       157    1   4.000000       15.464284870000      -0.000000037122     260.422299212583
       158    1   4.000000       17.397320478750       3.348115850073     260.422299212583
       159    1   4.000000       19.330356087500       6.696231737268     260.422299212583
       160    1   4.000000       21.263391696250      10.044347624463     260.422299212583
       161    1   4.000000        1.933035608750       1.116038592123     257.265666796387
       162    1   4.000000        3.866071217500       4.464154479318     257.265666796387
       163    1   4.000000        5.799106826250       7.812270366512     257.265666796387
       164    1   4.000000        7.732142435000      11.160386253707     257.265666796387
       165    1   4.000000        5.799106826250       1.116038592123     257.265666796387
       166    1   4.000000        7.732142435000       4.464154479318     257.265666796387
       167    1   4.000000        9.665178043750       7.812270366512     257.265666796387
       168    1   4.000000       11.598213652500      11.160386253707     257.265666796387
       169    1   4.000000        9.665178043750       1.116038592123     257.265666796387
       170    1   4.000000       11.598213652500       4.464154479318     257.265666796387
       171    1   4.000000       13.531249261250       7.812270366512     257.265666796387
       172    1   4.000000       15.464284870000      11.160386253707     257.265666796387
       173    1   4.000000       13.531249261250       1.116038592123     257.265666796387
       174    1   4.000000       15.464284870000       4.464154479318     257.265666796387
       175    1   4.000000       17.397320478750       7.812270366512     257.265666796387
       176    1   4.000000       19.330356087500      11.160386253707     257.265666796387
       177    1   4.000000        1.933035608750      -1.116038643507     254.109031476088
       178    1   4.000000        3.866071217500       2.232077243688     254.109031476088
       179    1   4.000000        5.799106826250       5.580193130883     254.109031476088
       180    1   4.000000        7.732142435000       8.928309018077     254.109031476088
       181    1   4.000000        5.799106826250      -1.116038643507     254.109031476088
       182    1   4.000000        7.732142435000       2.232077243688     254.109031476088
       183    1   4.000000        9.665178043750       5.580193130883     254.109031476088
       184    1   4.000000       11.598213652500       8.928309018077     254.109031476088
       185    1   4.000000        9.665178043750      -1.116038643507     254.109031476088
       186    1   4.000000       11.598213652500       2.232077243688     254.109031476088
       187    1   4.000000       13.531249261250       5.580193130883     254.109031476088
       188    1   4.000000       15.464284870000       8.928309018077     254.109031476088
       189    1   4.000000       13.531249261250      -1.116038643507     254.109031476088
       190    1   4.000000       15.464284870000       2.232077243688     254.109031476088
       191    1   4.000000       17.397320478750       5.580193130883     254.109031476088
       192    1   4.000000       19.330356087500       8.928309018077     254.109031476088
       193    1   4.000000        3.866071217500       0.000000008058     250.952396155789
       194    1   4.000000        5.799106826250       3.348115895253     250.952396155789
       195    1   4.000000        7.732142435000       6.696231782448     250.952396155789
       196    1   4.000000        9.665178043750      10.044347669643     250.952396155789
       197    1   4.000000        7.732142435000       0.000000008058     250.952396155789
       198    1   4.000000        9.665178043750       3.348115895253     250.952396155789
       199    1   4.000000       11.598213652500       6.696231782448     250.952396155789
       200    1   4.000000       13.531249261250      10.044347669643     250.952396155789
       201    1   4.000000       11.598213652500       0.000000008058     250.952396155789
       202    1   4.000000       13.531249261250       3.348115895253     250.952396155789
       203    1   4.000000       15.464284870000       6.696231782448     250.952396155789
       204    1   4.000000       17.397320478750      10.044347669643     250.952396155789
       205    1   4.000000       15.464284870000       0.000000008058     250.952396155789
       206    1   4.000000       17.397320478750       3.348115895253     250.952396155789
       207    1   4.000000       19.330356087500       6.696231782448     250.952396155789
       208    1   4.000000       21.263391696250      10.044347669643     250.952396155789
       209    1   4.000000        1.933035608750       1.116038637302     247.795763739593
       210    1   4.000000        3.866071217500       4.464154524497     247.795763739593
       211    1   4.000000        5.799106826250       7.812270411692     247.795763739593
       212    1   4.000000        7.732142435000      11.160386298887     247.795763739593
       213    1   4.000000        5.799106826250       1.116038637302     247.795763739593
       214    1   4.000000        7.732142435000       4.464154524497     247.795763739593
       215    1   4.000000        9.665178043750       7.812270411692     247.795763739593
       216    1   4.000000       11.598213652500      11.160386298887     247.795763739593
       217    1   4.000000        9.665178043750       1.116038637302     247.795763739593
       218    1   4.000000       11.598213652500       4.464154524497     247.795763739593
       219    1   4.000000       13.531249261250       7.812270411692     247.795763739593
       220    1   4.000000       15.464284870000      11.160386298887     247.795763739593
       221    1   4.000000       13.531249261250       1.116038637302     247.795763739593
       222    1   4.000000       15.464284870000       4.464154524497     247.795763739593
       223    1   4.000000       17.397320478750       7.812270411692     247.795763739593
       224    1   4.000000       19.330356087500      11.160386298887     247.795763739593
       225    1   4.000000        1.933035608750      -1.116038598327     244.639128419295
       226    1   4.000000        3.866071217500       2.232077288868     244.639128419295
       227    1   4.000000        5.799106826250       5.580193176062     244.639128419295
       228    1   4.000000        7.732142435000       8.928309063257     244.639128419295
       229    1   4.000000        5.799106826250      -1.116038598327     244.639128419295
       230    1   4.000000        7.732142435000       2.232077288868     244.639128419295
       231    1   4.000000        9.665178043750       5.580193176062     244.639128419295
       232    1   4.000000       11.598213652500       8.928309063257     244.639128419295
       233    1   4.000000        9.665178043750      -1.116038598327     244.639128419295
       234    1   4.000000       11.598213652500       2.232077288868     244.639128419295
       235    1   4.000000       13.531249261250       5.580193176062     244.639128419295
       236    1   4.000000       15.464284870000       8.928309063257     244.639128419295
       237    1   4.000000       13.531249261250      -1.116038598327     244.639128419295
       238    1   4.000000       15.464284870000       2.232077288868     244.639128419295
       239    1   4.000000       17.397320478750       5.580193176062     244.639128419295
       240    1   4.000000       19.330356087500       8.928309063257     244.639128419295
       241    1   4.000000        3.866071217500       0.000000030917     241.482496003099
       242    1   4.000000        5.799106826250       3.348115918112     241.482496003099
       243    1   4.000000        7.732142435000       6.696231805307     241.482496003099
       244    1   4.000000        9.665178043750      10.044347692502     241.482496003099
       245    1   4.000000        7.732142435000       0.000000030917     241.482496003099
       246    1   4.000000        9.665178043750       3.348115918112     241.482496003099
       247    1   4.000000       11.598213652500       6.696231805307     241.482496003099
       248    1   4.000000       13.531249261250      10.044347692502     241.482496003099
       249    1   4.000000       11.598213652500       0.000000030917     241.482496003099
       250    1   4.000000       13.531249261250       3.348115918112     241.482496003099
       251    1   4.000000       15.464284870000       6.696231805307     241.482496003099
       252    1   4.000000       17.397320478750      10.044347692502     241.482496003099
       253    1   4.000000       15.464284870000       0.000000030917     241.482496003099
       254    1   4.000000       17.397320478750       3.348115918112     241.482496003099
       255    1   4.000000       19.330356087500       6.696231805307     241.482496003099
       256    1   4.000000       21.263391696250      10.044347692502     241.482496003099
       257    1   4.000000        1.933035608750       1.116038682482     238.325860682800
       258    1   4.000000        3.866071217500       4.464154569677     238.325860682800
       259    1   4.000000        5.799106826250       7.812270456872     238.325860682800
       260    1   4.000000        7.732142435000      11.160386344067     238.325860682800
       261    1   4.000000        5.799106826250       1.116038682482     238.325860682800
       262    1   4.000000        7.732142435000       4.464154569677     238.325860682800
       263    1   4.000000        9.665178043750       7.812270456872     238.325860682800
       264    1   4.000000       11.598213652500      11.160386344067     238.325860682800
       265    1   4.000000        9.665178043750       1.116038682482     238.325860682800
       266    1   4.000000       11.598213652500       4.464154569677     238.325860682800
       267    1   4.000000       13.531249261250       7.812270456872     238.325860682800
       268    1   4.000000       15.464284870000      11.160386344067     238.325860682800
       269    1   4.000000       13.531249261250       1.116038682482     238.325860682800
       270    1   4.000000       15.464284870000       4.464154569677     238.325860682800
       271    1   4.000000       17.397320478750       7.812270456872     238.325860682800
       272    1   4.000000       19.330356087500      11.160386344067     238.325860682800
       273    1   4.000000        1.933035531429      -1.116038709393     235.169228266604
       274    1   4.000000        3.866071140179       2.232077177802     235.169228266604
       275    1   4.000000        5.799106748929       5.580193064997     235.169228266604
       276    1   4.000000        7.732142357679       8.928308952192     235.169228266604
       277    1   4.000000        5.799106748929      -1.116038709393     235.169228266604
       278    1   4.000000        7.732142357679       2.232077177802     235.169228266604
       279    1   4.000000        9.665177966429       5.580193064997     235.169228266604
       280    1   4.000000       11.598213575179       8.928308952192     235.169228266604
       281    1   4.000000        9.665177966429      -1.116038709393     235.169228266604
       282    1   4.000000       11.598213575179       2.232077177802     235.169228266604
       283    1   4.000000       13.531249183929       5.580193064997     235.169228266604
       284    1   4.000000       15.464284792679       8.928308952192     235.169228266604
       285    1   4.000000       13.531249183929      -1.116038709393     235.169228266604
       286    1   4.000000       15.464284792679       2.232077177802     235.169228266604
       287    1   4.000000       17.397320401429       5.580193064997     235.169228266604
       288    1   4.000000       19.330356010179       8.928308952192     235.169228266604
       289    1   4.000000        3.866071140179      -0.000000057828     232.012592946305
       290    1   4.000000        5.799106748929       3.348115829367     232.012592946305
       291    1   4.000000        7.732142357679       6.696231716562     232.012592946305
       292    1   4.000000        9.665177966429      10.044347603757     232.012592946305
       293    1   4.000000        7.732142357679      -0.000000057828     232.012592946305
       294    1   4.000000        9.665177966429       3.348115829367     232.012592946305
       295    1   4.000000       11.598213575179       6.696231716562     232.012592946305
       296    1   4.000000       13.531249183929      10.044347603757     232.012592946305
       297    1   4.000000       11.598213575179      -0.000000057828     232.012592946305
       298    1   4.000000       13.531249183929       3.348115829367     232.012592946305
       299    1   4.000000       15.464284792679       6.696231716562     232.012592946305
       300    1   4.000000       17.397320401429      10.044347603757     232.012592946305
       301    1   4.000000       15.464284792679      -0.000000057828     232.012592946305
       302    1   4.000000       17.397320401429       3.348115829367     232.012592946305
       303    1   4.000000       19.330356010179       6.696231716562     232.012592946305
       304    1   4.000000       21.263391618929      10.044347603757     232.012592946305
       305    1   4.000000        1.933035531429       1.116038571417     228.855960530110
       306    1   4.000000        3.866071140179       4.464154458611     228.855960530110
       307    1   4.000000        5.799106748929       7.812270345806     228.855960530110
       308    1   4.000000        7.732142357679      11.160386233001     228.855960530110
       309    1   4.000000        5.799106748929       1.116038571417     228.855960530110
       310    1   4.000000        7.732142357679       4.464154458611     228.855960530110
       311    1   4.000000        9.665177966429       7.812270345806     228.855960530110
       312    1   4.000000       11.598213575179      11.160386233001     228.855960530110
       313    1   4.000000        9.665177966429       1.116038571417     228.855960530110
       314    1   4.000000       11.598213575179       4.464154458611     228.855960530110
       315    1   4.000000       13.531249183929       7.812270345806     228.855960530110
       316    1   4.000000       15.464284792679      11.160386233001     228.855960530110
       317    1   4.000000       13.531249183929       1.116038571417     228.855960530110
       318    1   4.000000       15.464284792679       4.464154458611     228.855960530110
       319    1   4.000000       17.397320401429       7.812270345806     228.855960530110
       320    1   4.000000       19.330356010179      11.160386233001     228.855960530110
       321    1   4.000000        1.933035531429      -1.116038664213     225.699325209811
       322    1   4.000000        3.866071140179       2.232077222982     225.699325209811
       323    1   4.000000        5.799106748929       5.580193110177     225.699325209811
       324    1   4.000000        7.732142357679       8.928308997371     225.699325209811
       325    1   4.000000        5.799106748929      -1.116038664213     225.699325209811